+ 1.2 0 1 tcp 40 ------- 2 0.0 1.0 0 0
- 1.2 0 1 tcp 40 ------- 2 0.0 1.0 0 0
r 1.20532 0 1 tcp 40 ------- 2 0.0 1.0 0 0
+ 1.20532 1 0 ack 40 ------- 2 1.0 0.0 0 1
- 1.20532 1 0 ack 40 ------- 2 1.0 0.0 0 1
r 1.21064 1 0 ack 40 ------- 2 1.0 0.0 0 1
+ 1.21064 0 1 tcp 1040 ------- 2 0.0 1.0 1 2
- 1.21064 0 1 tcp 1040 ------- 2 0.0 1.0 1 2
+ 1.21064 0 1 tcp 1040 ------- 2 0.0 1.0 2 3
- 1.21896 0 1 tcp 1040 ------- 2 0.0 1.0 2 3
r 1.22396 0 1 tcp 1040 ------- 2 0.0 1.0 1 2
+ 1.22396 1 0 ack 40 ------- 2 1.0 0.0 1 4
- 1.22396 1 0 ack 40 ------- 2 1.0 0.0 1 4
r 1.22928 1 0 ack 40 ------- 2 1.0 0.0 1 4
+ 1.22928 0 1 tcp 1040 ------- 2 0.0 1.0 3 5
- 1.22928 0 1 tcp 1040 ------- 2 0.0 1.0 3 5
+ 1.22928 0 1 tcp 1040 ------- 2 0.0 1.0 4 6
r 1.23228 0 1 tcp 1040 ------- 2 0.0 1.0 2 3
+ 1.23228 1 0 ack 40 ------- 2 1.0 0.0 2 7
- 1.23228 1 0 ack 40 ------- 2 1.0 0.0 2 7
- 1.2376 0 1 tcp 1040 ------- 2 0.0 1.0 4 6
r 1.2376 1 0 ack 40 ------- 2 1.0 0.0 2 7
+ 1.2376 0 1 tcp 1040 ------- 2 0.0 1.0 5 8
+ 1.2376 0 1 tcp 1040 ------- 2 0.0 1.0 6 9
r 1.2426 0 1 tcp 1040 ------- 2 0.0 1.0 3 5
+ 1.2426 1 0 ack 40 ------- 2 1.0 0.0 3 10
- 1.2426 1 0 ack 40 ------- 2 1.0 0.0 3 10
- 1.24592 0 1 tcp 1040 ------- 2 0.0 1.0 5 8
r 1.24792 1 0 ack 40 ------- 2 1.0 0.0 3 10
+ 1.24792 0 1 tcp 1040 ------- 2 0.0 1.0 7 11
+ 1.24792 0 1 tcp 1040 ------- 2 0.0 1.0 8 12
r 1.25092 0 1 tcp 1040 ------- 2 0.0 1.0 4 6
+ 1.25092 1 0 ack 40 ------- 2 1.0 0.0 4 13
- 1.25092 1 0 ack 40 ------- 2 1.0 0.0 4 13
- 1.25424 0 1 tcp 1040 ------- 2 0.0 1.0 6 9
r 1.25624 1 0 ack 40 ------- 2 1.0 0.0 4 13
+ 1.25624 0 1 tcp 1040 ------- 2 0.0 1.0 9 14
+ 1.25624 0 1 tcp 1040 ------- 2 0.0 1.0 10 15
r 1.25924 0 1 tcp 1040 ------- 2 0.0 1.0 5 8
+ 1.25924 1 0 ack 40 ------- 2 1.0 0.0 5 16
- 1.25924 1 0 ack 40 ------- 2 1.0 0.0 5 16
- 1.26256 0 1 tcp 1040 ------- 2 0.0 1.0 7 11
r 1.26456 1 0 ack 40 ------- 2 1.0 0.0 5 16
+ 1.26456 0 1 tcp 1040 ------- 2 0.0 1.0 11 17
+ 1.26456 0 1 tcp 1040 ------- 2 0.0 1.0 12 18
r 1.26756 0 1 tcp 1040 ------- 2 0.0 1.0 6 9
+ 1.26756 1 0 ack 40 ------- 2 1.0 0.0 6 19
- 1.26756 1 0 ack 40 ------- 2 1.0 0.0 6 19
- 1.27088 0 1 tcp 1040 ------- 2 0.0 1.0 8 12
r 1.27288 1 0 ack 40 ------- 2 1.0 0.0 6 19
+ 1.27288 0 1 tcp 1040 ------- 2 0.0 1.0 13 20
+ 1.27288 0 1 tcp 1040 ------- 2 0.0 1.0 14 21
r 1.27588 0 1 tcp 1040 ------- 2 0.0 1.0 7 11
+ 1.27588 1 0 ack 40 ------- 2 1.0 0.0 7 22
- 1.27588 1 0 ack 40 ------- 2 1.0 0.0 7 22
- 1.2792 0 1 tcp 1040 ------- 2 0.0 1.0 9 14
r 1.2812 1 0 ack 40 ------- 2 1.0 0.0 7 22
+ 1.2812 0 1 tcp 1040 ------- 2 0.0 1.0 15 23
+ 1.2812 0 1 tcp 1040 ------- 2 0.0 1.0 16 24
r 1.2842 0 1 tcp 1040 ------- 2 0.0 1.0 8 12
+ 1.2842 1 0 ack 40 ------- 2 1.0 0.0 8 25
- 1.2842 1 0 ack 40 ------- 2 1.0 0.0 8 25
- 1.28752 0 1 tcp 1040 ------- 2 0.0 1.0 10 15
r 1.28952 1 0 ack 40 ------- 2 1.0 0.0 8 25
+ 1.28952 0 1 tcp 1040 ------- 2 0.0 1.0 17 26
+ 1.28952 0 1 tcp 1040 ------- 2 0.0 1.0 18 27
r 1.29252 0 1 tcp 1040 ------- 2 0.0 1.0 9 14
+ 1.29252 1 0 ack 40 ------- 2 1.0 0.0 9 28
- 1.29252 1 0 ack 40 ------- 2 1.0 0.0 9 28
- 1.29584 0 1 tcp 1040 ------- 2 0.0 1.0 11 17
r 1.29784 1 0 ack 40 ------- 2 1.0 0.0 9 28
+ 1.29784 0 1 tcp 1040 ------- 2 0.0 1.0 19 29
+ 1.29784 0 1 tcp 1040 ------- 2 0.0 1.0 20 30
r 1.30084 0 1 tcp 1040 ------- 2 0.0 1.0 10 15
+ 1.30084 1 0 ack 40 ------- 2 1.0 0.0 10 31
- 1.30084 1 0 ack 40 ------- 2 1.0 0.0 10 31
- 1.30416 0 1 tcp 1040 ------- 2 0.0 1.0 12 18
r 1.30616 1 0 ack 40 ------- 2 1.0 0.0 10 31
+ 1.30616 0 1 tcp 1040 ------- 2 0.0 1.0 21 32
+ 1.30616 0 1 tcp 1040 ------- 2 0.0 1.0 22 33
r 1.30916 0 1 tcp 1040 ------- 2 0.0 1.0 11 17
+ 1.30916 1 0 ack 40 ------- 2 1.0 0.0 11 34
- 1.30916 1 0 ack 40 ------- 2 1.0 0.0 11 34
- 1.31248 0 1 tcp 1040 ------- 2 0.0 1.0 13 20
r 1.31448 1 0 ack 40 ------- 2 1.0 0.0 11 34
+ 1.31448 0 1 tcp 1040 ------- 2 0.0 1.0 23 35
+ 1.31448 0 1 tcp 1040 ------- 2 0.0 1.0 24 36
r 1.31748 0 1 tcp 1040 ------- 2 0.0 1.0 12 18
+ 1.31748 1 0 ack 40 ------- 2 1.0 0.0 12 37
- 1.31748 1 0 ack 40 ------- 2 1.0 0.0 12 37
- 1.3208 0 1 tcp 1040 ------- 2 0.0 1.0 14 21
r 1.3228 1 0 ack 40 ------- 2 1.0 0.0 12 37
+ 1.3228 0 1 tcp 1040 ------- 2 0.0 1.0 25 38
+ 1.3228 0 1 tcp 1040 ------- 2 0.0 1.0 26 39
r 1.3258 0 1 tcp 1040 ------- 2 0.0 1.0 13 20
+ 1.3258 1 0 ack 40 ------- 2 1.0 0.0 13 40
- 1.3258 1 0 ack 40 ------- 2 1.0 0.0 13 40
- 1.32912 0 1 tcp 1040 ------- 2 0.0 1.0 15 23
r 1.33112 1 0 ack 40 ------- 2 1.0 0.0 13 40
+ 1.33112 0 1 tcp 1040 ------- 2 0.0 1.0 27 41
+ 1.33112 0 1 tcp 1040 ------- 2 0.0 1.0 28 42
r 1.33412 0 1 tcp 1040 ------- 2 0.0 1.0 14 21
+ 1.33412 1 0 ack 40 ------- 2 1.0 0.0 14 43
- 1.33412 1 0 ack 40 ------- 2 1.0 0.0 14 43
- 1.33744 0 1 tcp 1040 ------- 2 0.0 1.0 16 24
r 1.33944 1 0 ack 40 ------- 2 1.0 0.0 14 43
+ 1.33944 0 1 tcp 1040 ------- 2 0.0 1.0 29 44
+ 1.33944 0 1 tcp 1040 ------- 2 0.0 1.0 30 45
r 1.34244 0 1 tcp 1040 ------- 2 0.0 1.0 15 23
+ 1.34244 1 0 ack 40 ------- 2 1.0 0.0 15 46
- 1.34244 1 0 ack 40 ------- 2 1.0 0.0 15 46
- 1.34576 0 1 tcp 1040 ------- 2 0.0 1.0 17 26
r 1.34776 1 0 ack 40 ------- 2 1.0 0.0 15 46
+ 1.34776 0 1 tcp 1040 ------- 2 0.0 1.0 31 47
+ 1.34776 0 1 tcp 1040 ------- 2 0.0 1.0 32 48
r 1.35076 0 1 tcp 1040 ------- 2 0.0 1.0 16 24
+ 1.35076 1 0 ack 40 ------- 2 1.0 0.0 16 49
- 1.35076 1 0 ack 40 ------- 2 1.0 0.0 16 49
- 1.35408 0 1 tcp 1040 ------- 2 0.0 1.0 18 27
r 1.35608 1 0 ack 40 ------- 2 1.0 0.0 16 49
+ 1.35608 0 1 tcp 1040 ------- 2 0.0 1.0 33 50
+ 1.35608 0 1 tcp 1040 ------- 2 0.0 1.0 34 51
r 1.35908 0 1 tcp 1040 ------- 2 0.0 1.0 17 26
+ 1.35908 1 0 ack 40 ------- 2 1.0 0.0 17 52
- 1.35908 1 0 ack 40 ------- 2 1.0 0.0 17 52
- 1.3624 0 1 tcp 1040 ------- 2 0.0 1.0 19 29
r 1.3644 1 0 ack 40 ------- 2 1.0 0.0 17 52
+ 1.3644 0 1 tcp 1040 ------- 2 0.0 1.0 35 53
+ 1.3644 0 1 tcp 1040 ------- 2 0.0 1.0 36 54
r 1.3674 0 1 tcp 1040 ------- 2 0.0 1.0 18 27
+ 1.3674 1 0 ack 40 ------- 2 1.0 0.0 18 55
- 1.3674 1 0 ack 40 ------- 2 1.0 0.0 18 55
- 1.37072 0 1 tcp 1040 ------- 2 0.0 1.0 20 30
r 1.37272 1 0 ack 40 ------- 2 1.0 0.0 18 55
+ 1.37272 0 1 tcp 1040 ------- 2 0.0 1.0 37 56
+ 1.37272 0 1 tcp 1040 ------- 2 0.0 1.0 38 57
r 1.37572 0 1 tcp 1040 ------- 2 0.0 1.0 19 29
+ 1.37572 1 0 ack 40 ------- 2 1.0 0.0 19 58
- 1.37572 1 0 ack 40 ------- 2 1.0 0.0 19 58
- 1.37904 0 1 tcp 1040 ------- 2 0.0 1.0 21 32
r 1.38104 1 0 ack 40 ------- 2 1.0 0.0 19 58
+ 1.38104 0 1 tcp 1040 ------- 2 0.0 1.0 39 59
r 1.38404 0 1 tcp 1040 ------- 2 0.0 1.0 20 30
+ 1.38404 1 0 ack 40 ------- 2 1.0 0.0 20 60
- 1.38404 1 0 ack 40 ------- 2 1.0 0.0 20 60
- 1.38736 0 1 tcp 1040 ------- 2 0.0 1.0 22 33
r 1.38936 1 0 ack 40 ------- 2 1.0 0.0 20 60
+ 1.38936 0 1 tcp 1040 ------- 2 0.0 1.0 40 61
r 1.39236 0 1 tcp 1040 ------- 2 0.0 1.0 21 32
+ 1.39236 1 0 ack 40 ------- 2 1.0 0.0 21 62
- 1.39236 1 0 ack 40 ------- 2 1.0 0.0 21 62
- 1.39568 0 1 tcp 1040 ------- 2 0.0 1.0 23 35
r 1.39768 1 0 ack 40 ------- 2 1.0 0.0 21 62
+ 1.39768 0 1 tcp 1040 ------- 2 0.0 1.0 41 63
r 1.40068 0 1 tcp 1040 ------- 2 0.0 1.0 22 33
+ 1.40068 1 0 ack 40 ------- 2 1.0 0.0 22 64
- 1.40068 1 0 ack 40 ------- 2 1.0 0.0 22 64
- 1.404 0 1 tcp 1040 ------- 2 0.0 1.0 24 36
r 1.406 1 0 ack 40 ------- 2 1.0 0.0 22 64
+ 1.406 0 1 tcp 1040 ------- 2 0.0 1.0 42 65
r 1.409 0 1 tcp 1040 ------- 2 0.0 1.0 23 35
+ 1.409 1 0 ack 40 ------- 2 1.0 0.0 23 66
- 1.409 1 0 ack 40 ------- 2 1.0 0.0 23 66
- 1.41232 0 1 tcp 1040 ------- 2 0.0 1.0 25 38
r 1.41432 1 0 ack 40 ------- 2 1.0 0.0 23 66
+ 1.41432 0 1 tcp 1040 ------- 2 0.0 1.0 43 67
r 1.41732 0 1 tcp 1040 ------- 2 0.0 1.0 24 36
+ 1.41732 1 0 ack 40 ------- 2 1.0 0.0 24 68
- 1.41732 1 0 ack 40 ------- 2 1.0 0.0 24 68
- 1.42064 0 1 tcp 1040 ------- 2 0.0 1.0 26 39
r 1.42264 1 0 ack 40 ------- 2 1.0 0.0 24 68
+ 1.42264 0 1 tcp 1040 ------- 2 0.0 1.0 44 69
r 1.42564 0 1 tcp 1040 ------- 2 0.0 1.0 25 38
+ 1.42564 1 0 ack 40 ------- 2 1.0 0.0 25 70
- 1.42564 1 0 ack 40 ------- 2 1.0 0.0 25 70
- 1.42896 0 1 tcp 1040 ------- 2 0.0 1.0 27 41
r 1.43096 1 0 ack 40 ------- 2 1.0 0.0 25 70
+ 1.43096 0 1 tcp 1040 ------- 2 0.0 1.0 45 71
r 1.43396 0 1 tcp 1040 ------- 2 0.0 1.0 26 39
+ 1.43396 1 0 ack 40 ------- 2 1.0 0.0 26 72
- 1.43396 1 0 ack 40 ------- 2 1.0 0.0 26 72
- 1.43728 0 1 tcp 1040 ------- 2 0.0 1.0 28 42
r 1.43928 1 0 ack 40 ------- 2 1.0 0.0 26 72
+ 1.43928 0 1 tcp 1040 ------- 2 0.0 1.0 46 73
r 1.44228 0 1 tcp 1040 ------- 2 0.0 1.0 27 41
+ 1.44228 1 0 ack 40 ------- 2 1.0 0.0 27 74
- 1.44228 1 0 ack 40 ------- 2 1.0 0.0 27 74
- 1.4456 0 1 tcp 1040 ------- 2 0.0 1.0 29 44
r 1.4476 1 0 ack 40 ------- 2 1.0 0.0 27 74
+ 1.4476 0 1 tcp 1040 ------- 2 0.0 1.0 47 75
r 1.4506 0 1 tcp 1040 ------- 2 0.0 1.0 28 42
+ 1.4506 1 0 ack 40 ------- 2 1.0 0.0 28 76
- 1.4506 1 0 ack 40 ------- 2 1.0 0.0 28 76
- 1.45392 0 1 tcp 1040 ------- 2 0.0 1.0 30 45
r 1.45592 1 0 ack 40 ------- 2 1.0 0.0 28 76
+ 1.45592 0 1 tcp 1040 ------- 2 0.0 1.0 48 77
r 1.45892 0 1 tcp 1040 ------- 2 0.0 1.0 29 44
+ 1.45892 1 0 ack 40 ------- 2 1.0 0.0 29 78
- 1.45892 1 0 ack 40 ------- 2 1.0 0.0 29 78
- 1.46224 0 1 tcp 1040 ------- 2 0.0 1.0 31 47
r 1.46424 1 0 ack 40 ------- 2 1.0 0.0 29 78
+ 1.46424 0 1 tcp 1040 ------- 2 0.0 1.0 49 79
r 1.46724 0 1 tcp 1040 ------- 2 0.0 1.0 30 45
+ 1.46724 1 0 ack 40 ------- 2 1.0 0.0 30 80
- 1.46724 1 0 ack 40 ------- 2 1.0 0.0 30 80
- 1.47056 0 1 tcp 1040 ------- 2 0.0 1.0 32 48
r 1.47256 1 0 ack 40 ------- 2 1.0 0.0 30 80
+ 1.47256 0 1 tcp 1040 ------- 2 0.0 1.0 50 81
r 1.47556 0 1 tcp 1040 ------- 2 0.0 1.0 31 47
+ 1.47556 1 0 ack 40 ------- 2 1.0 0.0 31 82
- 1.47556 1 0 ack 40 ------- 2 1.0 0.0 31 82
- 1.47888 0 1 tcp 1040 ------- 2 0.0 1.0 33 50
r 1.48088 1 0 ack 40 ------- 2 1.0 0.0 31 82
+ 1.48088 0 1 tcp 1040 ------- 2 0.0 1.0 51 83
r 1.48388 0 1 tcp 1040 ------- 2 0.0 1.0 32 48
+ 1.48388 1 0 ack 40 ------- 2 1.0 0.0 32 84
- 1.48388 1 0 ack 40 ------- 2 1.0 0.0 32 84
- 1.4872 0 1 tcp 1040 ------- 2 0.0 1.0 34 51
r 1.4892 1 0 ack 40 ------- 2 1.0 0.0 32 84
+ 1.4892 0 1 tcp 1040 ------- 2 0.0 1.0 52 85
r 1.4922 0 1 tcp 1040 ------- 2 0.0 1.0 33 50
+ 1.4922 1 0 ack 40 ------- 2 1.0 0.0 33 86
- 1.4922 1 0 ack 40 ------- 2 1.0 0.0 33 86
- 1.49552 0 1 tcp 1040 ------- 2 0.0 1.0 35 53
r 1.49752 1 0 ack 40 ------- 2 1.0 0.0 33 86
+ 1.49752 0 1 tcp 1040 ------- 2 0.0 1.0 53 87
r 1.50052 0 1 tcp 1040 ------- 2 0.0 1.0 34 51
+ 1.50052 1 0 ack 40 ------- 2 1.0 0.0 34 88
- 1.50052 1 0 ack 40 ------- 2 1.0 0.0 34 88
- 1.50384 0 1 tcp 1040 ------- 2 0.0 1.0 36 54
r 1.50584 1 0 ack 40 ------- 2 1.0 0.0 34 88
+ 1.50584 0 1 tcp 1040 ------- 2 0.0 1.0 54 89
r 1.50884 0 1 tcp 1040 ------- 2 0.0 1.0 35 53
+ 1.50884 1 0 ack 40 ------- 2 1.0 0.0 35 90
- 1.50884 1 0 ack 40 ------- 2 1.0 0.0 35 90
- 1.51216 0 1 tcp 1040 ------- 2 0.0 1.0 37 56
r 1.51416 1 0 ack 40 ------- 2 1.0 0.0 35 90
+ 1.51416 0 1 tcp 1040 ------- 2 0.0 1.0 55 91
r 1.51716 0 1 tcp 1040 ------- 2 0.0 1.0 36 54
+ 1.51716 1 0 ack 40 ------- 2 1.0 0.0 36 92
- 1.51716 1 0 ack 40 ------- 2 1.0 0.0 36 92
- 1.52048 0 1 tcp 1040 ------- 2 0.0 1.0 38 57
r 1.52248 1 0 ack 40 ------- 2 1.0 0.0 36 92
+ 1.52248 0 1 tcp 1040 ------- 2 0.0 1.0 56 93
r 1.52548 0 1 tcp 1040 ------- 2 0.0 1.0 37 56
+ 1.52548 1 0 ack 40 ------- 2 1.0 0.0 37 94
- 1.52548 1 0 ack 40 ------- 2 1.0 0.0 37 94
- 1.5288 0 1 tcp 1040 ------- 2 0.0 1.0 39 59
r 1.5308 1 0 ack 40 ------- 2 1.0 0.0 37 94
+ 1.5308 0 1 tcp 1040 ------- 2 0.0 1.0 57 95
r 1.5338 0 1 tcp 1040 ------- 2 0.0 1.0 38 57
+ 1.5338 1 0 ack 40 ------- 2 1.0 0.0 38 96
- 1.5338 1 0 ack 40 ------- 2 1.0 0.0 38 96
- 1.53712 0 1 tcp 1040 ------- 2 0.0 1.0 40 61
r 1.53912 1 0 ack 40 ------- 2 1.0 0.0 38 96
+ 1.53912 0 1 tcp 1040 ------- 2 0.0 1.0 58 97
r 1.54212 0 1 tcp 1040 ------- 2 0.0 1.0 39 59
+ 1.54212 1 0 ack 40 ------- 2 1.0 0.0 39 98
- 1.54212 1 0 ack 40 ------- 2 1.0 0.0 39 98
- 1.54544 0 1 tcp 1040 ------- 2 0.0 1.0 41 63
r 1.54744 1 0 ack 40 ------- 2 1.0 0.0 39 98
+ 1.54744 0 1 tcp 1040 ------- 2 0.0 1.0 59 99
r 1.55044 0 1 tcp 1040 ------- 2 0.0 1.0 40 61
+ 1.55044 1 0 ack 40 ------- 2 1.0 0.0 40 100
- 1.55044 1 0 ack 40 ------- 2 1.0 0.0 40 100
- 1.55376 0 1 tcp 1040 ------- 2 0.0 1.0 42 65
r 1.55576 1 0 ack 40 ------- 2 1.0 0.0 40 100
+ 1.55576 0 1 tcp 1040 ------- 2 0.0 1.0 60 101
r 1.55876 0 1 tcp 1040 ------- 2 0.0 1.0 41 63
+ 1.55876 1 0 ack 40 ------- 2 1.0 0.0 41 102
- 1.55876 1 0 ack 40 ------- 2 1.0 0.0 41 102
- 1.56208 0 1 tcp 1040 ------- 2 0.0 1.0 43 67
r 1.56408 1 0 ack 40 ------- 2 1.0 0.0 41 102
+ 1.56408 0 1 tcp 1040 ------- 2 0.0 1.0 61 103
r 1.56708 0 1 tcp 1040 ------- 2 0.0 1.0 42 65
+ 1.56708 1 0 ack 40 ------- 2 1.0 0.0 42 104
- 1.56708 1 0 ack 40 ------- 2 1.0 0.0 42 104
- 1.5704 0 1 tcp 1040 ------- 2 0.0 1.0 44 69
r 1.5724 1 0 ack 40 ------- 2 1.0 0.0 42 104
+ 1.5724 0 1 tcp 1040 ------- 2 0.0 1.0 62 105
r 1.5754 0 1 tcp 1040 ------- 2 0.0 1.0 43 67
+ 1.5754 1 0 ack 40 ------- 2 1.0 0.0 43 106
- 1.5754 1 0 ack 40 ------- 2 1.0 0.0 43 106
- 1.57872 0 1 tcp 1040 ------- 2 0.0 1.0 45 71
r 1.58072 1 0 ack 40 ------- 2 1.0 0.0 43 106
+ 1.58072 0 1 tcp 1040 ------- 2 0.0 1.0 63 107
r 1.58372 0 1 tcp 1040 ------- 2 0.0 1.0 44 69
+ 1.58372 1 0 ack 40 ------- 2 1.0 0.0 44 108
- 1.58372 1 0 ack 40 ------- 2 1.0 0.0 44 108
- 1.58704 0 1 tcp 1040 ------- 2 0.0 1.0 46 73
r 1.58904 1 0 ack 40 ------- 2 1.0 0.0 44 108
+ 1.58904 0 1 tcp 1040 ------- 2 0.0 1.0 64 109
r 1.59204 0 1 tcp 1040 ------- 2 0.0 1.0 45 71
+ 1.59204 1 0 ack 40 ------- 2 1.0 0.0 45 110
- 1.59204 1 0 ack 40 ------- 2 1.0 0.0 45 110
- 1.59536 0 1 tcp 1040 ------- 2 0.0 1.0 47 75
r 1.59736 1 0 ack 40 ------- 2 1.0 0.0 45 110
+ 1.59736 0 1 tcp 1040 ------- 2 0.0 1.0 65 111
r 1.60036 0 1 tcp 1040 ------- 2 0.0 1.0 46 73
+ 1.60036 1 0 ack 40 ------- 2 1.0 0.0 46 112
- 1.60036 1 0 ack 40 ------- 2 1.0 0.0 46 112
- 1.60368 0 1 tcp 1040 ------- 2 0.0 1.0 48 77
r 1.60568 1 0 ack 40 ------- 2 1.0 0.0 46 112
+ 1.60568 0 1 tcp 1040 ------- 2 0.0 1.0 66 113
r 1.60868 0 1 tcp 1040 ------- 2 0.0 1.0 47 75
+ 1.60868 1 0 ack 40 ------- 2 1.0 0.0 47 114
- 1.60868 1 0 ack 40 ------- 2 1.0 0.0 47 114
- 1.612 0 1 tcp 1040 ------- 2 0.0 1.0 49 79
r 1.614 1 0 ack 40 ------- 2 1.0 0.0 47 114
+ 1.614 0 1 tcp 1040 ------- 2 0.0 1.0 67 115
r 1.617 0 1 tcp 1040 ------- 2 0.0 1.0 48 77
+ 1.617 1 0 ack 40 ------- 2 1.0 0.0 48 116
- 1.617 1 0 ack 40 ------- 2 1.0 0.0 48 116
- 1.62032 0 1 tcp 1040 ------- 2 0.0 1.0 50 81
r 1.62232 1 0 ack 40 ------- 2 1.0 0.0 48 116
+ 1.62232 0 1 tcp 1040 ------- 2 0.0 1.0 68 117
r 1.62532 0 1 tcp 1040 ------- 2 0.0 1.0 49 79
+ 1.62532 1 0 ack 40 ------- 2 1.0 0.0 49 118
- 1.62532 1 0 ack 40 ------- 2 1.0 0.0 49 118
- 1.62864 0 1 tcp 1040 ------- 2 0.0 1.0 51 83
r 1.63064 1 0 ack 40 ------- 2 1.0 0.0 49 118
+ 1.63064 0 1 tcp 1040 ------- 2 0.0 1.0 69 119
r 1.63364 0 1 tcp 1040 ------- 2 0.0 1.0 50 81
+ 1.63364 1 0 ack 40 ------- 2 1.0 0.0 50 120
- 1.63364 1 0 ack 40 ------- 2 1.0 0.0 50 120
- 1.63696 0 1 tcp 1040 ------- 2 0.0 1.0 52 85
r 1.63896 1 0 ack 40 ------- 2 1.0 0.0 50 120
+ 1.63896 0 1 tcp 1040 ------- 2 0.0 1.0 70 121
r 1.64196 0 1 tcp 1040 ------- 2 0.0 1.0 51 83
+ 1.64196 1 0 ack 40 ------- 2 1.0 0.0 51 122
- 1.64196 1 0 ack 40 ------- 2 1.0 0.0 51 122
- 1.64528 0 1 tcp 1040 ------- 2 0.0 1.0 53 87
r 1.64728 1 0 ack 40 ------- 2 1.0 0.0 51 122
+ 1.64728 0 1 tcp 1040 ------- 2 0.0 1.0 71 123
r 1.65028 0 1 tcp 1040 ------- 2 0.0 1.0 52 85
+ 1.65028 1 0 ack 40 ------- 2 1.0 0.0 52 124
- 1.65028 1 0 ack 40 ------- 2 1.0 0.0 52 124
- 1.6536 0 1 tcp 1040 ------- 2 0.0 1.0 54 89
r 1.6556 1 0 ack 40 ------- 2 1.0 0.0 52 124
+ 1.6556 0 1 tcp 1040 ------- 2 0.0 1.0 72 125
r 1.6586 0 1 tcp 1040 ------- 2 0.0 1.0 53 87
+ 1.6586 1 0 ack 40 ------- 2 1.0 0.0 53 126
- 1.6586 1 0 ack 40 ------- 2 1.0 0.0 53 126
- 1.66192 0 1 tcp 1040 ------- 2 0.0 1.0 55 91
r 1.66392 1 0 ack 40 ------- 2 1.0 0.0 53 126
+ 1.66392 0 1 tcp 1040 ------- 2 0.0 1.0 73 127
r 1.66692 0 1 tcp 1040 ------- 2 0.0 1.0 54 89
+ 1.66692 1 0 ack 40 ------- 2 1.0 0.0 54 128
- 1.66692 1 0 ack 40 ------- 2 1.0 0.0 54 128
- 1.67024 0 1 tcp 1040 ------- 2 0.0 1.0 56 93
r 1.67224 1 0 ack 40 ------- 2 1.0 0.0 54 128
+ 1.67224 0 1 tcp 1040 ------- 2 0.0 1.0 74 129
r 1.67524 0 1 tcp 1040 ------- 2 0.0 1.0 55 91
+ 1.67524 1 0 ack 40 ------- 2 1.0 0.0 55 130
- 1.67524 1 0 ack 40 ------- 2 1.0 0.0 55 130
- 1.67856 0 1 tcp 1040 ------- 2 0.0 1.0 57 95
r 1.68056 1 0 ack 40 ------- 2 1.0 0.0 55 130
+ 1.68056 0 1 tcp 1040 ------- 2 0.0 1.0 75 131
r 1.68356 0 1 tcp 1040 ------- 2 0.0 1.0 56 93
+ 1.68356 1 0 ack 40 ------- 2 1.0 0.0 56 132
- 1.68356 1 0 ack 40 ------- 2 1.0 0.0 56 132
- 1.68688 0 1 tcp 1040 ------- 2 0.0 1.0 58 97
r 1.68888 1 0 ack 40 ------- 2 1.0 0.0 56 132
+ 1.68888 0 1 tcp 1040 ------- 2 0.0 1.0 76 133
r 1.69188 0 1 tcp 1040 ------- 2 0.0 1.0 57 95
+ 1.69188 1 0 ack 40 ------- 2 1.0 0.0 57 134
- 1.69188 1 0 ack 40 ------- 2 1.0 0.0 57 134
- 1.6952 0 1 tcp 1040 ------- 2 0.0 1.0 59 99
r 1.6972 1 0 ack 40 ------- 2 1.0 0.0 57 134
+ 1.6972 0 1 tcp 1040 ------- 2 0.0 1.0 77 135
r 1.7002 0 1 tcp 1040 ------- 2 0.0 1.0 58 97
+ 1.7002 1 0 ack 40 ------- 2 1.0 0.0 58 136
- 1.7002 1 0 ack 40 ------- 2 1.0 0.0 58 136
- 1.70352 0 1 tcp 1040 ------- 2 0.0 1.0 60 101
r 1.70552 1 0 ack 40 ------- 2 1.0 0.0 58 136
+ 1.70552 0 1 tcp 1040 ------- 2 0.0 1.0 78 137
r 1.70852 0 1 tcp 1040 ------- 2 0.0 1.0 59 99
+ 1.70852 1 0 ack 40 ------- 2 1.0 0.0 59 138
- 1.70852 1 0 ack 40 ------- 2 1.0 0.0 59 138
- 1.71184 0 1 tcp 1040 ------- 2 0.0 1.0 61 103
r 1.71384 1 0 ack 40 ------- 2 1.0 0.0 59 138
+ 1.71384 0 1 tcp 1040 ------- 2 0.0 1.0 79 139
r 1.71684 0 1 tcp 1040 ------- 2 0.0 1.0 60 101
+ 1.71684 1 0 ack 40 ------- 2 1.0 0.0 60 140
- 1.71684 1 0 ack 40 ------- 2 1.0 0.0 60 140
- 1.72016 0 1 tcp 1040 ------- 2 0.0 1.0 62 105
r 1.72216 1 0 ack 40 ------- 2 1.0 0.0 60 140
+ 1.72216 0 1 tcp 1040 ------- 2 0.0 1.0 80 141
r 1.72516 0 1 tcp 1040 ------- 2 0.0 1.0 61 103
+ 1.72516 1 0 ack 40 ------- 2 1.0 0.0 61 142
- 1.72516 1 0 ack 40 ------- 2 1.0 0.0 61 142
- 1.72848 0 1 tcp 1040 ------- 2 0.0 1.0 63 107
r 1.73048 1 0 ack 40 ------- 2 1.0 0.0 61 142
+ 1.73048 0 1 tcp 1040 ------- 2 0.0 1.0 81 143
r 1.73348 0 1 tcp 1040 ------- 2 0.0 1.0 62 105
+ 1.73348 1 0 ack 40 ------- 2 1.0 0.0 62 144
- 1.73348 1 0 ack 40 ------- 2 1.0 0.0 62 144
- 1.7368 0 1 tcp 1040 ------- 2 0.0 1.0 64 109
r 1.7388 1 0 ack 40 ------- 2 1.0 0.0 62 144
+ 1.7388 0 1 tcp 1040 ------- 2 0.0 1.0 82 145
r 1.7418 0 1 tcp 1040 ------- 2 0.0 1.0 63 107
+ 1.7418 1 0 ack 40 ------- 2 1.0 0.0 63 146
- 1.7418 1 0 ack 40 ------- 2 1.0 0.0 63 146
- 1.74512 0 1 tcp 1040 ------- 2 0.0 1.0 65 111
r 1.74712 1 0 ack 40 ------- 2 1.0 0.0 63 146
+ 1.74712 0 1 tcp 1040 ------- 2 0.0 1.0 83 147
r 1.75012 0 1 tcp 1040 ------- 2 0.0 1.0 64 109
+ 1.75012 1 0 ack 40 ------- 2 1.0 0.0 64 148
- 1.75012 1 0 ack 40 ------- 2 1.0 0.0 64 148
- 1.75344 0 1 tcp 1040 ------- 2 0.0 1.0 66 113
r 1.75544 1 0 ack 40 ------- 2 1.0 0.0 64 148
+ 1.75544 0 1 tcp 1040 ------- 2 0.0 1.0 84 149
r 1.75844 0 1 tcp 1040 ------- 2 0.0 1.0 65 111
+ 1.75844 1 0 ack 40 ------- 2 1.0 0.0 65 150
- 1.75844 1 0 ack 40 ------- 2 1.0 0.0 65 150
- 1.76176 0 1 tcp 1040 ------- 2 0.0 1.0 67 115
r 1.76376 1 0 ack 40 ------- 2 1.0 0.0 65 150
+ 1.76376 0 1 tcp 1040 ------- 2 0.0 1.0 85 151
r 1.76676 0 1 tcp 1040 ------- 2 0.0 1.0 66 113
+ 1.76676 1 0 ack 40 ------- 2 1.0 0.0 66 152
- 1.76676 1 0 ack 40 ------- 2 1.0 0.0 66 152
- 1.77008 0 1 tcp 1040 ------- 2 0.0 1.0 68 117
r 1.77208 1 0 ack 40 ------- 2 1.0 0.0 66 152
+ 1.77208 0 1 tcp 1040 ------- 2 0.0 1.0 86 153
r 1.77508 0 1 tcp 1040 ------- 2 0.0 1.0 67 115
+ 1.77508 1 0 ack 40 ------- 2 1.0 0.0 67 154
- 1.77508 1 0 ack 40 ------- 2 1.0 0.0 67 154
- 1.7784 0 1 tcp 1040 ------- 2 0.0 1.0 69 119
r 1.7804 1 0 ack 40 ------- 2 1.0 0.0 67 154
+ 1.7804 0 1 tcp 1040 ------- 2 0.0 1.0 87 155
r 1.7834 0 1 tcp 1040 ------- 2 0.0 1.0 68 117
+ 1.7834 1 0 ack 40 ------- 2 1.0 0.0 68 156
- 1.7834 1 0 ack 40 ------- 2 1.0 0.0 68 156
- 1.78672 0 1 tcp 1040 ------- 2 0.0 1.0 70 121
r 1.78872 1 0 ack 40 ------- 2 1.0 0.0 68 156
+ 1.78872 0 1 tcp 1040 ------- 2 0.0 1.0 88 157
r 1.79172 0 1 tcp 1040 ------- 2 0.0 1.0 69 119
+ 1.79172 1 0 ack 40 ------- 2 1.0 0.0 69 158
- 1.79172 1 0 ack 40 ------- 2 1.0 0.0 69 158
- 1.79504 0 1 tcp 1040 ------- 2 0.0 1.0 71 123
r 1.79704 1 0 ack 40 ------- 2 1.0 0.0 69 158
+ 1.79704 0 1 tcp 1040 ------- 2 0.0 1.0 89 159
r 1.80004 0 1 tcp 1040 ------- 2 0.0 1.0 70 121
+ 1.80004 1 0 ack 40 ------- 2 1.0 0.0 70 160
- 1.80004 1 0 ack 40 ------- 2 1.0 0.0 70 160
- 1.80336 0 1 tcp 1040 ------- 2 0.0 1.0 72 125
r 1.80536 1 0 ack 40 ------- 2 1.0 0.0 70 160
+ 1.80536 0 1 tcp 1040 ------- 2 0.0 1.0 90 161
r 1.80836 0 1 tcp 1040 ------- 2 0.0 1.0 71 123
+ 1.80836 1 0 ack 40 ------- 2 1.0 0.0 71 162
- 1.80836 1 0 ack 40 ------- 2 1.0 0.0 71 162
- 1.81168 0 1 tcp 1040 ------- 2 0.0 1.0 73 127
r 1.81368 1 0 ack 40 ------- 2 1.0 0.0 71 162
+ 1.81368 0 1 tcp 1040 ------- 2 0.0 1.0 91 163
r 1.81668 0 1 tcp 1040 ------- 2 0.0 1.0 72 125
+ 1.81668 1 0 ack 40 ------- 2 1.0 0.0 72 164
- 1.81668 1 0 ack 40 ------- 2 1.0 0.0 72 164
- 1.82 0 1 tcp 1040 ------- 2 0.0 1.0 74 129
r 1.822 1 0 ack 40 ------- 2 1.0 0.0 72 164
+ 1.822 0 1 tcp 1040 ------- 2 0.0 1.0 92 165
r 1.825 0 1 tcp 1040 ------- 2 0.0 1.0 73 127
+ 1.825 1 0 ack 40 ------- 2 1.0 0.0 73 166
- 1.825 1 0 ack 40 ------- 2 1.0 0.0 73 166
- 1.82832 0 1 tcp 1040 ------- 2 0.0 1.0 75 131
r 1.83032 1 0 ack 40 ------- 2 1.0 0.0 73 166
+ 1.83032 0 1 tcp 1040 ------- 2 0.0 1.0 93 167
r 1.83332 0 1 tcp 1040 ------- 2 0.0 1.0 74 129
+ 1.83332 1 0 ack 40 ------- 2 1.0 0.0 74 168
- 1.83332 1 0 ack 40 ------- 2 1.0 0.0 74 168
- 1.83664 0 1 tcp 1040 ------- 2 0.0 1.0 76 133
r 1.83864 1 0 ack 40 ------- 2 1.0 0.0 74 168
+ 1.83864 0 1 tcp 1040 ------- 2 0.0 1.0 94 169
r 1.84164 0 1 tcp 1040 ------- 2 0.0 1.0 75 131
+ 1.84164 1 0 ack 40 ------- 2 1.0 0.0 75 170
- 1.84164 1 0 ack 40 ------- 2 1.0 0.0 75 170
- 1.84496 0 1 tcp 1040 ------- 2 0.0 1.0 77 135
r 1.84696 1 0 ack 40 ------- 2 1.0 0.0 75 170
+ 1.84696 0 1 tcp 1040 ------- 2 0.0 1.0 95 171
r 1.84996 0 1 tcp 1040 ------- 2 0.0 1.0 76 133
+ 1.84996 1 0 ack 40 ------- 2 1.0 0.0 76 172
- 1.84996 1 0 ack 40 ------- 2 1.0 0.0 76 172
- 1.85328 0 1 tcp 1040 ------- 2 0.0 1.0 78 137
r 1.85528 1 0 ack 40 ------- 2 1.0 0.0 76 172
+ 1.85528 0 1 tcp 1040 ------- 2 0.0 1.0 96 173
r 1.85828 0 1 tcp 1040 ------- 2 0.0 1.0 77 135
+ 1.85828 1 0 ack 40 ------- 2 1.0 0.0 77 174
- 1.85828 1 0 ack 40 ------- 2 1.0 0.0 77 174
- 1.8616 0 1 tcp 1040 ------- 2 0.0 1.0 79 139
r 1.8636 1 0 ack 40 ------- 2 1.0 0.0 77 174
+ 1.8636 0 1 tcp 1040 ------- 2 0.0 1.0 97 175
r 1.8666 0 1 tcp 1040 ------- 2 0.0 1.0 78 137
+ 1.8666 1 0 ack 40 ------- 2 1.0 0.0 78 176
- 1.8666 1 0 ack 40 ------- 2 1.0 0.0 78 176
- 1.86992 0 1 tcp 1040 ------- 2 0.0 1.0 80 141
r 1.87192 1 0 ack 40 ------- 2 1.0 0.0 78 176
+ 1.87192 0 1 tcp 1040 ------- 2 0.0 1.0 98 177
r 1.87492 0 1 tcp 1040 ------- 2 0.0 1.0 79 139
+ 1.87492 1 0 ack 40 ------- 2 1.0 0.0 79 178
- 1.87492 1 0 ack 40 ------- 2 1.0 0.0 79 178
- 1.87824 0 1 tcp 1040 ------- 2 0.0 1.0 81 143
r 1.88024 1 0 ack 40 ------- 2 1.0 0.0 79 178
+ 1.88024 0 1 tcp 1040 ------- 2 0.0 1.0 99 179
r 1.88324 0 1 tcp 1040 ------- 2 0.0 1.0 80 141
+ 1.88324 1 0 ack 40 ------- 2 1.0 0.0 80 180
- 1.88324 1 0 ack 40 ------- 2 1.0 0.0 80 180
- 1.88656 0 1 tcp 1040 ------- 2 0.0 1.0 82 145
r 1.88856 1 0 ack 40 ------- 2 1.0 0.0 80 180
+ 1.88856 0 1 tcp 1040 ------- 2 0.0 1.0 100 181
r 1.89156 0 1 tcp 1040 ------- 2 0.0 1.0 81 143
+ 1.89156 1 0 ack 40 ------- 2 1.0 0.0 81 182
- 1.89156 1 0 ack 40 ------- 2 1.0 0.0 81 182
- 1.89488 0 1 tcp 1040 ------- 2 0.0 1.0 83 147
r 1.89688 1 0 ack 40 ------- 2 1.0 0.0 81 182
+ 1.89688 0 1 tcp 1040 ------- 2 0.0 1.0 101 183
r 1.89988 0 1 tcp 1040 ------- 2 0.0 1.0 82 145
+ 1.89988 1 0 ack 40 ------- 2 1.0 0.0 82 184
- 1.89988 1 0 ack 40 ------- 2 1.0 0.0 82 184
- 1.9032 0 1 tcp 1040 ------- 2 0.0 1.0 84 149
r 1.9052 1 0 ack 40 ------- 2 1.0 0.0 82 184
+ 1.9052 0 1 tcp 1040 ------- 2 0.0 1.0 102 185
r 1.9082 0 1 tcp 1040 ------- 2 0.0 1.0 83 147
+ 1.9082 1 0 ack 40 ------- 2 1.0 0.0 83 186
- 1.9082 1 0 ack 40 ------- 2 1.0 0.0 83 186
- 1.91152 0 1 tcp 1040 ------- 2 0.0 1.0 85 151
r 1.91352 1 0 ack 40 ------- 2 1.0 0.0 83 186
+ 1.91352 0 1 tcp 1040 ------- 2 0.0 1.0 103 187
r 1.91652 0 1 tcp 1040 ------- 2 0.0 1.0 84 149
+ 1.91652 1 0 ack 40 ------- 2 1.0 0.0 84 188
- 1.91652 1 0 ack 40 ------- 2 1.0 0.0 84 188
- 1.91984 0 1 tcp 1040 ------- 2 0.0 1.0 86 153
r 1.92184 1 0 ack 40 ------- 2 1.0 0.0 84 188
+ 1.92184 0 1 tcp 1040 ------- 2 0.0 1.0 104 189
r 1.92484 0 1 tcp 1040 ------- 2 0.0 1.0 85 151
+ 1.92484 1 0 ack 40 ------- 2 1.0 0.0 85 190
- 1.92484 1 0 ack 40 ------- 2 1.0 0.0 85 190
- 1.92816 0 1 tcp 1040 ------- 2 0.0 1.0 87 155
r 1.93016 1 0 ack 40 ------- 2 1.0 0.0 85 190
+ 1.93016 0 1 tcp 1040 ------- 2 0.0 1.0 105 191
r 1.93316 0 1 tcp 1040 ------- 2 0.0 1.0 86 153
+ 1.93316 1 0 ack 40 ------- 2 1.0 0.0 86 192
- 1.93316 1 0 ack 40 ------- 2 1.0 0.0 86 192
- 1.93648 0 1 tcp 1040 ------- 2 0.0 1.0 88 157
r 1.93848 1 0 ack 40 ------- 2 1.0 0.0 86 192
+ 1.93848 0 1 tcp 1040 ------- 2 0.0 1.0 106 193
r 1.94148 0 1 tcp 1040 ------- 2 0.0 1.0 87 155
+ 1.94148 1 0 ack 40 ------- 2 1.0 0.0 87 194
- 1.94148 1 0 ack 40 ------- 2 1.0 0.0 87 194
- 1.9448 0 1 tcp 1040 ------- 2 0.0 1.0 89 159
r 1.9468 1 0 ack 40 ------- 2 1.0 0.0 87 194
+ 1.9468 0 1 tcp 1040 ------- 2 0.0 1.0 107 195
r 1.9498 0 1 tcp 1040 ------- 2 0.0 1.0 88 157
+ 1.9498 1 0 ack 40 ------- 2 1.0 0.0 88 196
- 1.9498 1 0 ack 40 ------- 2 1.0 0.0 88 196
- 1.95312 0 1 tcp 1040 ------- 2 0.0 1.0 90 161
r 1.95512 1 0 ack 40 ------- 2 1.0 0.0 88 196
+ 1.95512 0 1 tcp 1040 ------- 2 0.0 1.0 108 197
r 1.95812 0 1 tcp 1040 ------- 2 0.0 1.0 89 159
+ 1.95812 1 0 ack 40 ------- 2 1.0 0.0 89 198
- 1.95812 1 0 ack 40 ------- 2 1.0 0.0 89 198
- 1.96144 0 1 tcp 1040 ------- 2 0.0 1.0 91 163
r 1.96344 1 0 ack 40 ------- 2 1.0 0.0 89 198
+ 1.96344 0 1 tcp 1040 ------- 2 0.0 1.0 109 199
r 1.96644 0 1 tcp 1040 ------- 2 0.0 1.0 90 161
+ 1.96644 1 0 ack 40 ------- 2 1.0 0.0 90 200
- 1.96644 1 0 ack 40 ------- 2 1.0 0.0 90 200
- 1.96976 0 1 tcp 1040 ------- 2 0.0 1.0 92 165
r 1.97176 1 0 ack 40 ------- 2 1.0 0.0 90 200
+ 1.97176 0 1 tcp 1040 ------- 2 0.0 1.0 110 201
r 1.97476 0 1 tcp 1040 ------- 2 0.0 1.0 91 163
+ 1.97476 1 0 ack 40 ------- 2 1.0 0.0 91 202
- 1.97476 1 0 ack 40 ------- 2 1.0 0.0 91 202
- 1.97808 0 1 tcp 1040 ------- 2 0.0 1.0 93 167
r 1.98008 1 0 ack 40 ------- 2 1.0 0.0 91 202
+ 1.98008 0 1 tcp 1040 ------- 2 0.0 1.0 111 203
r 1.98308 0 1 tcp 1040 ------- 2 0.0 1.0 92 165
+ 1.98308 1 0 ack 40 ------- 2 1.0 0.0 92 204
- 1.98308 1 0 ack 40 ------- 2 1.0 0.0 92 204
- 1.9864 0 1 tcp 1040 ------- 2 0.0 1.0 94 169
r 1.9884 1 0 ack 40 ------- 2 1.0 0.0 92 204
+ 1.9884 0 1 tcp 1040 ------- 2 0.0 1.0 112 205
r 1.9914 0 1 tcp 1040 ------- 2 0.0 1.0 93 167
+ 1.9914 1 0 ack 40 ------- 2 1.0 0.0 93 206
- 1.9914 1 0 ack 40 ------- 2 1.0 0.0 93 206
- 1.99472 0 1 tcp 1040 ------- 2 0.0 1.0 95 171
r 1.99672 1 0 ack 40 ------- 2 1.0 0.0 93 206
+ 1.99672 0 1 tcp 1040 ------- 2 0.0 1.0 113 207
r 1.99972 0 1 tcp 1040 ------- 2 0.0 1.0 94 169
+ 1.99972 1 0 ack 40 ------- 2 1.0 0.0 94 208
- 1.99972 1 0 ack 40 ------- 2 1.0 0.0 94 208
- 2.00304 0 1 tcp 1040 ------- 2 0.0 1.0 96 173
r 2.00504 1 0 ack 40 ------- 2 1.0 0.0 94 208
+ 2.00504 0 1 tcp 1040 ------- 2 0.0 1.0 114 209
r 2.00804 0 1 tcp 1040 ------- 2 0.0 1.0 95 171
+ 2.00804 1 0 ack 40 ------- 2 1.0 0.0 95 210
- 2.00804 1 0 ack 40 ------- 2 1.0 0.0 95 210
- 2.01136 0 1 tcp 1040 ------- 2 0.0 1.0 97 175
r 2.01336 1 0 ack 40 ------- 2 1.0 0.0 95 210
+ 2.01336 0 1 tcp 1040 ------- 2 0.0 1.0 115 211
r 2.01636 0 1 tcp 1040 ------- 2 0.0 1.0 96 173
+ 2.01636 1 0 ack 40 ------- 2 1.0 0.0 96 212
- 2.01636 1 0 ack 40 ------- 2 1.0 0.0 96 212
- 2.01968 0 1 tcp 1040 ------- 2 0.0 1.0 98 177
r 2.02168 1 0 ack 40 ------- 2 1.0 0.0 96 212
+ 2.02168 0 1 tcp 1040 ------- 2 0.0 1.0 116 213
r 2.02468 0 1 tcp 1040 ------- 2 0.0 1.0 97 175
+ 2.02468 1 0 ack 40 ------- 2 1.0 0.0 97 214
- 2.02468 1 0 ack 40 ------- 2 1.0 0.0 97 214
- 2.028 0 1 tcp 1040 ------- 2 0.0 1.0 99 179
r 2.03 1 0 ack 40 ------- 2 1.0 0.0 97 214
+ 2.03 0 1 tcp 1040 ------- 2 0.0 1.0 117 215
r 2.033 0 1 tcp 1040 ------- 2 0.0 1.0 98 177
+ 2.033 1 0 ack 40 ------- 2 1.0 0.0 98 216
- 2.033 1 0 ack 40 ------- 2 1.0 0.0 98 216
- 2.03632 0 1 tcp 1040 ------- 2 0.0 1.0 100 181
r 2.03832 1 0 ack 40 ------- 2 1.0 0.0 98 216
+ 2.03832 0 1 tcp 1040 ------- 2 0.0 1.0 118 217
r 2.04132 0 1 tcp 1040 ------- 2 0.0 1.0 99 179
+ 2.04132 1 0 ack 40 ------- 2 1.0 0.0 99 218
- 2.04132 1 0 ack 40 ------- 2 1.0 0.0 99 218
- 2.04464 0 1 tcp 1040 ------- 2 0.0 1.0 101 183
r 2.04664 1 0 ack 40 ------- 2 1.0 0.0 99 218
+ 2.04664 0 1 tcp 1040 ------- 2 0.0 1.0 119 219
r 2.04964 0 1 tcp 1040 ------- 2 0.0 1.0 100 181
+ 2.04964 1 0 ack 40 ------- 2 1.0 0.0 100 220
- 2.04964 1 0 ack 40 ------- 2 1.0 0.0 100 220
- 2.05296 0 1 tcp 1040 ------- 2 0.0 1.0 102 185
r 2.05496 1 0 ack 40 ------- 2 1.0 0.0 100 220
+ 2.05496 0 1 tcp 1040 ------- 2 0.0 1.0 120 221
r 2.05796 0 1 tcp 1040 ------- 2 0.0 1.0 101 183
+ 2.05796 1 0 ack 40 ------- 2 1.0 0.0 101 222
- 2.05796 1 0 ack 40 ------- 2 1.0 0.0 101 222
- 2.06128 0 1 tcp 1040 ------- 2 0.0 1.0 103 187
r 2.06328 1 0 ack 40 ------- 2 1.0 0.0 101 222
+ 2.06328 0 1 tcp 1040 ------- 2 0.0 1.0 121 223
r 2.06628 0 1 tcp 1040 ------- 2 0.0 1.0 102 185
+ 2.06628 1 0 ack 40 ------- 2 1.0 0.0 102 224
- 2.06628 1 0 ack 40 ------- 2 1.0 0.0 102 224
- 2.0696 0 1 tcp 1040 ------- 2 0.0 1.0 104 189
r 2.0716 1 0 ack 40 ------- 2 1.0 0.0 102 224
+ 2.0716 0 1 tcp 1040 ------- 2 0.0 1.0 122 225
r 2.0746 0 1 tcp 1040 ------- 2 0.0 1.0 103 187
+ 2.0746 1 0 ack 40 ------- 2 1.0 0.0 103 226
- 2.0746 1 0 ack 40 ------- 2 1.0 0.0 103 226
- 2.07792 0 1 tcp 1040 ------- 2 0.0 1.0 105 191
r 2.07992 1 0 ack 40 ------- 2 1.0 0.0 103 226
+ 2.07992 0 1 tcp 1040 ------- 2 0.0 1.0 123 227
r 2.08292 0 1 tcp 1040 ------- 2 0.0 1.0 104 189
+ 2.08292 1 0 ack 40 ------- 2 1.0 0.0 104 228