+ 1 0 1 cbr 1000 ------- 0 0.0 1.0 0 0
- 1 0 1 cbr 1000 ------- 0 0.0 1.0 0 0
+ 1.005 0 1 cbr 1000 ------- 0 0.0 1.0 1 1
- 1.008 0 1 cbr 1000 ------- 0 0.0 1.0 1 1
+ 1.01 0 1 cbr 1000 ------- 0 0.0 1.0 2 2
r 1.013 0 1 cbr 1000 ------- 0 0.0 1.0 0 0
+ 1.015 0 1 cbr 1000 ------- 0 0.0 1.0 3 3
- 1.016 0 1 cbr 1000 ------- 0 0.0 1.0 2 2
+ 1.02 0 1 cbr 1000 ------- 0 0.0 1.0 4 4
r 1.021 0 1 cbr 1000 ------- 0 0.0 1.0 1 1
- 1.024 0 1 cbr 1000 ------- 0 0.0 1.0 3 3
+ 1.025 0 1 cbr 1000 ------- 0 0.0 1.0 5 5
r 1.029 0 1 cbr 1000 ------- 0 0.0 1.0 2 2
+ 1.03 0 1 cbr 1000 ------- 0 0.0 1.0 6 6
- 1.032 0 1 cbr 1000 ------- 0 0.0 1.0 4 4
+ 1.035 0 1 cbr 1000 ------- 0 0.0 1.0 7 7
r 1.037 0 1 cbr 1000 ------- 0 0.0 1.0 3 3
+ 1.04 0 1 cbr 1000 ------- 0 0.0 1.0 8 8
- 1.04 0 1 cbr 1000 ------- 0 0.0 1.0 5 5
+ 1.045 0 1 cbr 1000 ------- 0 0.0 1.0 9 9
r 1.045 0 1 cbr 1000 ------- 0 0.0 1.0 4 4
- 1.048 0 1 cbr 1000 ------- 0 0.0 1.0 6 6
+ 1.05 0 1 cbr 1000 ------- 0 0.0 1.0 10 10
r 1.053 0 1 cbr 1000 ------- 0 0.0 1.0 5 5
+ 1.055 0 1 cbr 1000 ------- 0 0.0 1.0 11 11
- 1.056 0 1 cbr 1000 ------- 0 0.0 1.0 7 7
+ 1.06 0 1 cbr 1000 ------- 0 0.0 1.0 12 12
r 1.061 0 1 cbr 1000 ------- 0 0.0 1.0 6 6
- 1.064 0 1 cbr 1000 ------- 0 0.0 1.0 8 8
+ 1.065 0 1 cbr 1000 ------- 0 0.0 1.0 13 13
r 1.069 0 1 cbr 1000 ------- 0 0.0 1.0 7 7
+ 1.07 0 1 cbr 1000 ------- 0 0.0 1.0 14 14
- 1.072 0 1 cbr 1000 ------- 0 0.0 1.0 9 9
+ 1.075 0 1 cbr 1000 ------- 0 0.0 1.0 15 15
r 1.077 0 1 cbr 1000 ------- 0 0.0 1.0 8 8
+ 1.08 0 1 cbr 1000 ------- 0 0.0 1.0 16 16
- 1.08 0 1 cbr 1000 ------- 0 0.0 1.0 10 10
+ 1.085 0 1 cbr 1000 ------- 0 0.0 1.0 17 17
r 1.085 0 1 cbr 1000 ------- 0 0.0 1.0 9 9
- 1.088 0 1 cbr 1000 ------- 0 0.0 1.0 11 11
+ 1.09 0 1 cbr 1000 ------- 0 0.0 1.0 18 18
r 1.093 0 1 cbr 1000 ------- 0 0.0 1.0 10 10
+ 1.095 0 1 cbr 1000 ------- 0 0.0 1.0 19 19
- 1.096 0 1 cbr 1000 ------- 0 0.0 1.0 12 12
+ 1.1 0 1 cbr 1000 ------- 0 0.0 1.0 20 20
r 1.101 0 1 cbr 1000 ------- 0 0.0 1.0 11 11
- 1.104 0 1 cbr 1000 ------- 0 0.0 1.0 13 13
+ 1.105 0 1 cbr 1000 ------- 0 0.0 1.0 21 21
r 1.109 0 1 cbr 1000 ------- 0 0.0 1.0 12 12
+ 1.11 0 1 cbr 1000 ------- 0 0.0 1.0 22 22
- 1.112 0 1 cbr 1000 ------- 0 0.0 1.0 14 14
+ 1.115 0 1 cbr 1000 ------- 0 0.0 1.0 23 23
r 1.117 0 1 cbr 1000 ------- 0 0.0 1.0 13 13
+ 1.12 0 1 cbr 1000 ------- 0 0.0 1.0 24 24
- 1.12 0 1 cbr 1000 ------- 0 0.0 1.0 15 15
+ 1.125 0 1 cbr 1000 ------- 0 0.0 1.0 25 25
r 1.125 0 1 cbr 1000 ------- 0 0.0 1.0 14 14
- 1.128 0 1 cbr 1000 ------- 0 0.0 1.0 16 16
+ 1.13 0 1 cbr 1000 ------- 0 0.0 1.0 26 26
r 1.133 0 1 cbr 1000 ------- 0 0.0 1.0 15 15
+ 1.135 0 1 cbr 1000 ------- 0 0.0 1.0 27 27
- 1.136 0 1 cbr 1000 ------- 0 0.0 1.0 17 17
+ 1.14 0 1 cbr 1000 ------- 0 0.0 1.0 28 28
r 1.141 0 1 cbr 1000 ------- 0 0.0 1.0 16 16
- 1.144 0 1 cbr 1000 ------- 0 0.0 1.0 18 18
+ 1.145 0 1 cbr 1000 ------- 0 0.0 1.0 29 29
r 1.149 0 1 cbr 1000 ------- 0 0.0 1.0 17 17
+ 1.15 0 1 cbr 1000 ------- 0 0.0 1.0 30 30
- 1.152 0 1 cbr 1000 ------- 0 0.0 1.0 19 19
+ 1.155 0 1 cbr 1000 ------- 0 0.0 1.0 31 31
r 1.157 0 1 cbr 1000 ------- 0 0.0 1.0 18 18
+ 1.16 0 1 cbr 1000 ------- 0 0.0 1.0 32 32
- 1.16 0 1 cbr 1000 ------- 0 0.0 1.0 20 20
+ 1.165 0 1 cbr 1000 ------- 0 0.0 1.0 33 33
r 1.165 0 1 cbr 1000 ------- 0 0.0 1.0 19 19
- 1.168 0 1 cbr 1000 ------- 0 0.0 1.0 21 21
+ 1.17 0 1 cbr 1000 ------- 0 0.0 1.0 34 34
r 1.173 0 1 cbr 1000 ------- 0 0.0 1.0 20 20
+ 1.175 0 1 cbr 1000 ------- 0 0.0 1.0 35 35
- 1.176 0 1 cbr 1000 ------- 0 0.0 1.0 22 22
+ 1.18 0 1 cbr 1000 ------- 0 0.0 1.0 36 36
r 1.181 0 1 cbr 1000 ------- 0 0.0 1.0 21 21
- 1.184 0 1 cbr 1000 ------- 0 0.0 1.0 23 23
+ 1.185 0 1 cbr 1000 ------- 0 0.0 1.0 37 37
r 1.189 0 1 cbr 1000 ------- 0 0.0 1.0 22 22
+ 1.19 0 1 cbr 1000 ------- 0 0.0 1.0 38 38
- 1.192 0 1 cbr 1000 ------- 0 0.0 1.0 24 24
+ 1.195 0 1 cbr 1000 ------- 0 0.0 1.0 39 39
r 1.197 0 1 cbr 1000 ------- 0 0.0 1.0 23 23
+ 1.2 0 1 cbr 1000 ------- 0 0.0 1.0 40 40
- 1.2 0 1 cbr 1000 ------- 0 0.0 1.0 25 25
+ 1.205 0 1 cbr 1000 ------- 0 0.0 1.0 41 41
r 1.205 0 1 cbr 1000 ------- 0 0.0 1.0 24 24
- 1.208 0 1 cbr 1000 ------- 0 0.0 1.0 26 26
+ 1.21 0 1 cbr 1000 ------- 0 0.0 1.0 42 42
r 1.213 0 1 cbr 1000 ------- 0 0.0 1.0 25 25
+ 1.215 0 1 cbr 1000 ------- 0 0.0 1.0 43 43
- 1.216 0 1 cbr 1000 ------- 0 0.0 1.0 27 27
+ 1.22 0 1 cbr 1000 ------- 0 0.0 1.0 44 44
r 1.221 0 1 cbr 1000 ------- 0 0.0 1.0 26 26
- 1.224 0 1 cbr 1000 ------- 0 0.0 1.0 28 28
+ 1.225 0 1 cbr 1000 ------- 0 0.0 1.0 45 45
r 1.229 0 1 cbr 1000 ------- 0 0.0 1.0 27 27
+ 1.23 0 1 cbr 1000 ------- 0 0.0 1.0 46 46
- 1.232 0 1 cbr 1000 ------- 0 0.0 1.0 29 29
+ 1.235 0 1 cbr 1000 ------- 0 0.0 1.0 47 47
r 1.237 0 1 cbr 1000 ------- 0 0.0 1.0 28 28
+ 1.24 0 1 cbr 1000 ------- 0 0.0 1.0 48 48
- 1.24 0 1 cbr 1000 ------- 0 0.0 1.0 30 30
+ 1.245 0 1 cbr 1000 ------- 0 0.0 1.0 49 49
r 1.245 0 1 cbr 1000 ------- 0 0.0 1.0 29 29
- 1.248 0 1 cbr 1000 ------- 0 0.0 1.0 31 31
+ 1.25 0 1 cbr 1000 ------- 0 0.0 1.0 50 50
r 1.253 0 1 cbr 1000 ------- 0 0.0 1.0 30 30
+ 1.255 0 1 cbr 1000 ------- 0 0.0 1.0 51 51
- 1.256 0 1 cbr 1000 ------- 0 0.0 1.0 32 32
+ 1.26 0 1 cbr 1000 ------- 0 0.0 1.0 52 52
r 1.261 0 1 cbr 1000 ------- 0 0.0 1.0 31 31
- 1.264 0 1 cbr 1000 ------- 0 0.0 1.0 33 33
+ 1.265 0 1 cbr 1000 ------- 0 0.0 1.0 53 53
r 1.269 0 1 cbr 1000 ------- 0 0.0 1.0 32 32
+ 1.27 0 1 cbr 1000 ------- 0 0.0 1.0 54 54
- 1.272 0 1 cbr 1000 ------- 0 0.0 1.0 34 34
+ 1.275 0 1 cbr 1000 ------- 0 0.0 1.0 55 55
r 1.277 0 1 cbr 1000 ------- 0 0.0 1.0 33 33
+ 1.28 0 1 cbr 1000 ------- 0 0.0 1.0 56 56
- 1.28 0 1 cbr 1000 ------- 0 0.0 1.0 35 35
+ 1.285 0 1 cbr 1000 ------- 0 0.0 1.0 57 57
r 1.285 0 1 cbr 1000 ------- 0 0.0 1.0 34 34
- 1.288 0 1 cbr 1000 ------- 0 0.0 1.0 36 36
+ 1.29 0 1 cbr 1000 ------- 0 0.0 1.0 58 58
r 1.293 0 1 cbr 1000 ------- 0 0.0 1.0 35 35
+ 1.295 0 1 cbr 1000 ------- 0 0.0 1.0 59 59
- 1.296 0 1 cbr 1000 ------- 0 0.0 1.0 37 37
+ 1.3 0 1 cbr 1000 ------- 0 0.0 1.0 60 60
r 1.301 0 1 cbr 1000 ------- 0 0.0 1.0 36 36
- 1.304 0 1 cbr 1000 ------- 0 0.0 1.0 38 38
+ 1.305 0 1 cbr 1000 ------- 0 0.0 1.0 61 61
r 1.309 0 1 cbr 1000 ------- 0 0.0 1.0 37 37
+ 1.31 0 1 cbr 1000 ------- 0 0.0 1.0 62 62
- 1.312 0 1 cbr 1000 ------- 0 0.0 1.0 39 39
+ 1.315 0 1 cbr 1000 ------- 0 0.0 1.0 63 63
r 1.317 0 1 cbr 1000 ------- 0 0.0 1.0 38 38
+ 1.32 0 1 cbr 1000 ------- 0 0.0 1.0 64 64
- 1.32 0 1 cbr 1000 ------- 0 0.0 1.0 40 40
+ 1.325 0 1 cbr 1000 ------- 0 0.0 1.0 65 65
r 1.325 0 1 cbr 1000 ------- 0 0.0 1.0 39 39
- 1.328 0 1 cbr 1000 ------- 0 0.0 1.0 41 41
+ 1.33 0 1 cbr 1000 ------- 0 0.0 1.0 66 66
r 1.333 0 1 cbr 1000 ------- 0 0.0 1.0 40 40
+ 1.335 0 1 cbr 1000 ------- 0 0.0 1.0 67 67
- 1.336 0 1 cbr 1000 ------- 0 0.0 1.0 42 42
+ 1.34 0 1 cbr 1000 ------- 0 0.0 1.0 68 68
r 1.341 0 1 cbr 1000 ------- 0 0.0 1.0 41 41
- 1.344 0 1 cbr 1000 ------- 0 0.0 1.0 43 43
+ 1.345 0 1 cbr 1000 ------- 0 0.0 1.0 69 69
r 1.349 0 1 cbr 1000 ------- 0 0.0 1.0 42 42
+ 1.35 0 1 cbr 1000 ------- 0 0.0 1.0 70 70
- 1.352 0 1 cbr 1000 ------- 0 0.0 1.0 44 44
+ 1.355 0 1 cbr 1000 ------- 0 0.0 1.0 71 71
r 1.357 0 1 cbr 1000 ------- 0 0.0 1.0 43 43
+ 1.36 0 1 cbr 1000 ------- 0 0.0 1.0 72 72
- 1.36 0 1 cbr 1000 ------- 0 0.0 1.0 45 45
+ 1.365 0 1 cbr 1000 ------- 0 0.0 1.0 73 73
r 1.365 0 1 cbr 1000 ------- 0 0.0 1.0 44 44
- 1.368 0 1 cbr 1000 ------- 0 0.0 1.0 46 46
+ 1.37 0 1 cbr 1000 ------- 0 0.0 1.0 74 74
r 1.373 0 1 cbr 1000 ------- 0 0.0 1.0 45 45
+ 1.375 0 1 cbr 1000 ------- 0 0.0 1.0 75 75
- 1.376 0 1 cbr 1000 ------- 0 0.0 1.0 47 47
+ 1.38 0 1 cbr 1000 ------- 0 0.0 1.0 76 76
r 1.381 0 1 cbr 1000 ------- 0 0.0 1.0 46 46
- 1.384 0 1 cbr 1000 ------- 0 0.0 1.0 48 48
+ 1.385 0 1 cbr 1000 ------- 0 0.0 1.0 77 77
r 1.389 0 1 cbr 1000 ------- 0 0.0 1.0 47 47
+ 1.39 0 1 cbr 1000 ------- 0 0.0 1.0 78 78
- 1.392 0 1 cbr 1000 ------- 0 0.0 1.0 49 49
+ 1.395 0 1 cbr 1000 ------- 0 0.0 1.0 79 79
r 1.397 0 1 cbr 1000 ------- 0 0.0 1.0 48 48
+ 1.4 0 1 cbr 1000 ------- 0 0.0 1.0 80 80
- 1.4 0 1 cbr 1000 ------- 0 0.0 1.0 50 50
+ 1.405 0 1 cbr 1000 ------- 0 0.0 1.0 81 81
r 1.405 0 1 cbr 1000 ------- 0 0.0 1.0 49 49
- 1.408 0 1 cbr 1000 ------- 0 0.0 1.0 51 51
+ 1.41 0 1 cbr 1000 ------- 0 0.0 1.0 82 82
r 1.413 0 1 cbr 1000 ------- 0 0.0 1.0 50 50
+ 1.415 0 1 cbr 1000 ------- 0 0.0 1.0 83 83
- 1.416 0 1 cbr 1000 ------- 0 0.0 1.0 52 52
+ 1.42 0 1 cbr 1000 ------- 0 0.0 1.0 84 84
r 1.421 0 1 cbr 1000 ------- 0 0.0 1.0 51 51
- 1.424 0 1 cbr 1000 ------- 0 0.0 1.0 53 53
+ 1.425 0 1 cbr 1000 ------- 0 0.0 1.0 85 85
r 1.429 0 1 cbr 1000 ------- 0 0.0 1.0 52 52
+ 1.43 0 1 cbr 1000 ------- 0 0.0 1.0 86 86
- 1.432 0 1 cbr 1000 ------- 0 0.0 1.0 54 54
+ 1.435 0 1 cbr 1000 ------- 0 0.0 1.0 87 87
r 1.437 0 1 cbr 1000 ------- 0 0.0 1.0 53 53
+ 1.44 0 1 cbr 1000 ------- 0 0.0 1.0 88 88
- 1.44 0 1 cbr 1000 ------- 0 0.0 1.0 55 55
+ 1.445 0 1 cbr 1000 ------- 0 0.0 1.0 89 89
r 1.445 0 1 cbr 1000 ------- 0 0.0 1.0 54 54
- 1.448 0 1 cbr 1000 ------- 0 0.0 1.0 56 56
+ 1.45 0 1 cbr 1000 ------- 0 0.0 1.0 90 90
r 1.453 0 1 cbr 1000 ------- 0 0.0 1.0 55 55
+ 1.455 0 1 cbr 1000 ------- 0 0.0 1.0 91 91
- 1.456 0 1 cbr 1000 ------- 0 0.0 1.0 57 57
+ 1.46 0 1 cbr 1000 ------- 0 0.0 1.0 92 92
r 1.461 0 1 cbr 1000 ------- 0 0.0 1.0 56 56
- 1.464 0 1 cbr 1000 ------- 0 0.0 1.0 58 58
+ 1.465 0 1 cbr 1000 ------- 0 0.0 1.0 93 93
r 1.469 0 1 cbr 1000 ------- 0 0.0 1.0 57 57
+ 1.47 0 1 cbr 1000 ------- 0 0.0 1.0 94 94
- 1.472 0 1 cbr 1000 ------- 0 0.0 1.0 59 59
+ 1.475 0 1 cbr 1000 ------- 0 0.0 1.0 95 95
r 1.477 0 1 cbr 1000 ------- 0 0.0 1.0 58 58
+ 1.48 0 1 cbr 1000 ------- 0 0.0 1.0 96 96
- 1.48 0 1 cbr 1000 ------- 0 0.0 1.0 60 60
+ 1.485 0 1 cbr 1000 ------- 0 0.0 1.0 97 97
r 1.485 0 1 cbr 1000 ------- 0 0.0 1.0 59 59
- 1.488 0 1 cbr 1000 ------- 0 0.0 1.0 61 61
+ 1.49 0 1 cbr 1000 ------- 0 0.0 1.0 98 98
r 1.493 0 1 cbr 1000 ------- 0 0.0 1.0 60 60
+ 1.495 0 1 cbr 1000 ------- 0 0.0 1.0 99 99
- 1.496 0 1 cbr 1000 ------- 0 0.0 1.0 62 62
+ 1.5 0 1 cbr 1000 ------- 0 0.0 1.0 100 100
r 1.501 0 1 cbr 1000 ------- 0 0.0 1.0 61 61
- 1.504 0 1 cbr 1000 ------- 0 0.0 1.0 63 63
+ 1.505 0 1 cbr 1000 ------- 0 0.0 1.0 101 101
r 1.509 0 1 cbr 1000 ------- 0 0.0 1.0 62 62
+ 1.51 0 1 cbr 1000 ------- 0 0.0 1.0 102 102
- 1.512 0 1 cbr 1000 ------- 0 0.0 1.0 64 64
+ 1.515 0 1 cbr 1000 ------- 0 0.0 1.0 103 103
r 1.517 0 1 cbr 1000 ------- 0 0.0 1.0 63 63
+ 1.52 0 1 cbr 1000 ------- 0 0.0 1.0 104 104
- 1.52 0 1 cbr 1000 ------- 0 0.0 1.0 65 65
+ 1.525 0 1 cbr 1000 ------- 0 0.0 1.0 105 105
r 1.525 0 1 cbr 1000 ------- 0 0.0 1.0 64 64
- 1.528 0 1 cbr 1000 ------- 0 0.0 1.0 66 66
+ 1.53 0 1 cbr 1000 ------- 0 0.0 1.0 106 106
r 1.533 0 1 cbr 1000 ------- 0 0.0 1.0 65 65
+ 1.535 0 1 cbr 1000 ------- 0 0.0 1.0 107 107
- 1.536 0 1 cbr 1000 ------- 0 0.0 1.0 67 67
+ 1.54 0 1 cbr 1000 ------- 0 0.0 1.0 108 108
r 1.541 0 1 cbr 1000 ------- 0 0.0 1.0 66 66
- 1.544 0 1 cbr 1000 ------- 0 0.0 1.0 68 68
+ 1.545 0 1 cbr 1000 ------- 0 0.0 1.0 109 109
r 1.549 0 1 cbr 1000 ------- 0 0.0 1.0 67 67
+ 1.55 0 1 cbr 1000 ------- 0 0.0 1.0 110 110
- 1.552 0 1 cbr 1000 ------- 0 0.0 1.0 69 69
+ 1.555 0 1 cbr 1000 ------- 0 0.0 1.0 111 111
r 1.557 0 1 cbr 1000 ------- 0 0.0 1.0 68 68
+ 1.56 0 1 cbr 1000 ------- 0 0.0 1.0 112 112
- 1.56 0 1 cbr 1000 ------- 0 0.0 1.0 70 70
+ 1.565 0 1 cbr 1000 ------- 0 0.0 1.0 113 113
r 1.565 0 1 cbr 1000 ------- 0 0.0 1.0 69 69
- 1.568 0 1 cbr 1000 ------- 0 0.0 1.0 71 71
+ 1.57 0 1 cbr 1000 ------- 0 0.0 1.0 114 114
r 1.573 0 1 cbr 1000 ------- 0 0.0 1.0 70 70
+ 1.575 0 1 cbr 1000 ------- 0 0.0 1.0 115 115
- 1.576 0 1 cbr 1000 ------- 0 0.0 1.0 72 72
+ 1.58 0 1 cbr 1000 ------- 0 0.0 1.0 116 116
r 1.581 0 1 cbr 1000 ------- 0 0.0 1.0 71 71
- 1.584 0 1 cbr 1000 ------- 0 0.0 1.0 73 73
+ 1.585 0 1 cbr 1000 ------- 0 0.0 1.0 117 117
r 1.589 0 1 cbr 1000 ------- 0 0.0 1.0 72 72
+ 1.59 0 1 cbr 1000 ------- 0 0.0 1.0 118 118
- 1.592 0 1 cbr 1000 ------- 0 0.0 1.0 74 74
+ 1.595 0 1 cbr 1000 ------- 0 0.0 1.0 119 119
r 1.597 0 1 cbr 1000 ------- 0 0.0 1.0 73 73
+ 1.6 0 1 cbr 1000 ------- 0 0.0 1.0 120 120
- 1.6 0 1 cbr 1000 ------- 0 0.0 1.0 75 75
+ 1.605 0 1 cbr 1000 ------- 0 0.0 1.0 121 121
r 1.605 0 1 cbr 1000 ------- 0 0.0 1.0 74 74
- 1.608 0 1 cbr 1000 ------- 0 0.0 1.0 76 76
+ 1.61 0 1 cbr 1000 ------- 0 0.0 1.0 122 122
r 1.613 0 1 cbr 1000 ------- 0 0.0 1.0 75 75
+ 1.615 0 1 cbr 1000 ------- 0 0.0 1.0 123 123
- 1.616 0 1 cbr 1000 ------- 0 0.0 1.0 77 77
+ 1.62 0 1 cbr 1000 ------- 0 0.0 1.0 124 124
r 1.621 0 1 cbr 1000 ------- 0 0.0 1.0 76 76
- 1.624 0 1 cbr 1000 ------- 0 0.0 1.0 78 78
+ 1.625 0 1 cbr 1000 ------- 0 0.0 1.0 125 125
r 1.629 0 1 cbr 1000 ------- 0 0.0 1.0 77 77
+ 1.63 0 1 cbr 1000 ------- 0 0.0 1.0 126 126
- 1.632 0 1 cbr 1000 ------- 0 0.0 1.0 79 79
+ 1.635 0 1 cbr 1000 ------- 0 0.0 1.0 127 127
r 1.637 0 1 cbr 1000 ------- 0 0.0 1.0 78 78
+ 1.64 0 1 cbr 1000 ------- 0 0.0 1.0 128 128
- 1.64 0 1 cbr 1000 ------- 0 0.0 1.0 80 80
+ 1.645 0 1 cbr 1000 ------- 0 0.0 1.0 129 129
r 1.645 0 1 cbr 1000 ------- 0 0.0 1.0 79 79
- 1.648 0 1 cbr 1000 ------- 0 0.0 1.0 81 81
+ 1.65 0 1 cbr 1000 ------- 0 0.0 1.0 130 130
r 1.653 0 1 cbr 1000 ------- 0 0.0 1.0 80 80
+ 1.655 0 1 cbr 1000 ------- 0 0.0 1.0 131 131
d 1.655 0 1 cbr 1000 ------- 0 0.0 1.0 131 131
- 1.656 0 1 cbr 1000 ------- 0 0.0 1.0 82 82
+ 1.66 0 1 cbr 1000 ------- 0 0.0 1.0 132 132
r 1.661 0 1 cbr 1000 ------- 0 0.0 1.0 81 81
- 1.664 0 1 cbr 1000 ------- 0 0.0 1.0 83 83
+ 1.665 0 1 cbr 1000 ------- 0 0.0 1.0 133 133
r 1.669 0 1 cbr 1000 ------- 0 0.0 1.0 82 82
+ 1.67 0 1 cbr 1000 ------- 0 0.0 1.0 134 134
d 1.67 0 1 cbr 1000 ------- 0 0.0 1.0 134 134
- 1.672 0 1 cbr 1000 ------- 0 0.0 1.0 84 84
+ 1.675 0 1 cbr 1000 ------- 0 0.0 1.0 135 135
r 1.677 0 1 cbr 1000 ------- 0 0.0 1.0 83 83
+ 1.68 0 1 cbr 1000 ------- 0 0.0 1.0 136 136
d 1.68 0 1 cbr 1000 ------- 0 0.0 1.0 136 136
- 1.68 0 1 cbr 1000 ------- 0 0.0 1.0 85 85
+ 1.685 0 1 cbr 1000 ------- 0 0.0 1.0 137 137
r 1.685 0 1 cbr 1000 ------- 0 0.0 1.0 84 84
- 1.688 0 1 cbr 1000 ------- 0 0.0 1.0 86 86
+ 1.69 0 1 cbr 1000 ------- 0 0.0 1.0 138 138
r 1.693 0 1 cbr 1000 ------- 0 0.0 1.0 85 85
+ 1.695 0 1 cbr 1000 ------- 0 0.0 1.0 139 139
d 1.695 0 1 cbr 1000 ------- 0 0.0 1.0 139 139
- 1.696 0 1 cbr 1000 ------- 0 0.0 1.0 87 87
+ 1.7 0 1 cbr 1000 ------- 0 0.0 1.0 140 140
r 1.701 0 1 cbr 1000 ------- 0 0.0 1.0 86 86
- 1.704 0 1 cbr 1000 ------- 0 0.0 1.0 88 88
+ 1.705 0 1 cbr 1000 ------- 0 0.0 1.0 141 141
r 1.709 0 1 cbr 1000 ------- 0 0.0 1.0 87 87
+ 1.71 0 1 cbr 1000 ------- 0 0.0 1.0 142 142
d 1.71 0 1 cbr 1000 ------- 0 0.0 1.0 142 142
- 1.712 0 1 cbr 1000 ------- 0 0.0 1.0 89 89
+ 1.715 0 1 cbr 1000 ------- 0 0.0 1.0 143 143
r 1.717 0 1 cbr 1000 ------- 0 0.0 1.0 88 88
+ 1.72 0 1 cbr 1000 ------- 0 0.0 1.0 144 144
d 1.72 0 1 cbr 1000 ------- 0 0.0 1.0 144 144
- 1.72 0 1 cbr 1000 ------- 0 0.0 1.0 90 90
+ 1.725 0 1 cbr 1000 ------- 0 0.0 1.0 145 145
r 1.725 0 1 cbr 1000 ------- 0 0.0 1.0 89 89
- 1.728 0 1 cbr 1000 ------- 0 0.0 1.0 91 91
+ 1.73 0 1 cbr 1000 ------- 0 0.0 1.0 146 146
r 1.733 0 1 cbr 1000 ------- 0 0.0 1.0 90 90
+ 1.735 0 1 cbr 1000 ------- 0 0.0 1.0 147 147
d 1.735 0 1 cbr 1000 ------- 0 0.0 1.0 147 147
- 1.736 0 1 cbr 1000 ------- 0 0.0 1.0 92 92
+ 1.74 0 1 cbr 1000 ------- 0 0.0 1.0 148 148
r 1.741 0 1 cbr 1000 ------- 0 0.0 1.0 91 91
- 1.744 0 1 cbr 1000 ------- 0 0.0 1.0 93 93
+ 1.745 0 1 cbr 1000 ------- 0 0.0 1.0 149 149
r 1.749 0 1 cbr 1000 ------- 0 0.0 1.0 92 92
+ 1.75 0 1 cbr 1000 ------- 0 0.0 1.0 150 150
d 1.75 0 1 cbr 1000 ------- 0 0.0 1.0 150 150
- 1.752 0 1 cbr 1000 ------- 0 0.0 1.0 94 94
+ 1.755 0 1 cbr 1000 ------- 0 0.0 1.0 151 151
r 1.757 0 1 cbr 1000 ------- 0 0.0 1.0 93 93
+ 1.76 0 1 cbr 1000 ------- 0 0.0 1.0 152 152
d 1.76 0 1 cbr 1000 ------- 0 0.0 1.0 152 152
- 1.76 0 1 cbr 1000 ------- 0 0.0 1.0 95 95
+ 1.765 0 1 cbr 1000 ------- 0 0.0 1.0 153 153
r 1.765 0 1 cbr 1000 ------- 0 0.0 1.0 94 94
- 1.768 0 1 cbr 1000 ------- 0 0.0 1.0 96 96
+ 1.77 0 1 cbr 1000 ------- 0 0.0 1.0 154 154
r 1.773 0 1 cbr 1000 ------- 0 0.0 1.0 95 95
+ 1.775 0 1 cbr 1000 ------- 0 0.0 1.0 155 155
d 1.775 0 1 cbr 1000 ------- 0 0.0 1.0 155 155
- 1.776 0 1 cbr 1000 ------- 0 0.0 1.0 97 97
+ 1.78 0 1 cbr 1000 ------- 0 0.0 1.0 156 156
r 1.781 0 1 cbr 1000 ------- 0 0.0 1.0 96 96
- 1.784 0 1 cbr 1000 ------- 0 0.0 1.0 98 98
+ 1.785 0 1 cbr 1000 ------- 0 0.0 1.0 157 157
r 1.789 0 1 cbr 1000 ------- 0 0.0 1.0 97 97
+ 1.79 0 1 cbr 1000 ------- 0 0.0 1.0 158 158
d 1.79 0 1 cbr 1000 ------- 0 0.0 1.0 158 158
- 1.792 0 1 cbr 1000 ------- 0 0.0 1.0 99 99
+ 1.795 0 1 cbr 1000 ------- 0 0.0 1.0 159 159
r 1.797 0 1 cbr 1000 ------- 0 0.0 1.0 98 98
+ 1.8 0 1 cbr 1000 ------- 0 0.0 1.0 160 160
d 1.8 0 1 cbr 1000 ------- 0 0.0 1.0 160 160
- 1.8 0 1 cbr 1000 ------- 0 0.0 1.0 100 100
+ 1.805 0 1 cbr 1000 ------- 0 0.0 1.0 161 161
r 1.805 0 1 cbr 1000 ------- 0 0.0 1.0 99 99
- 1.808 0 1 cbr 1000 ------- 0 0.0 1.0 101 101
+ 1.81 0 1 cbr 1000 ------- 0 0.0 1.0 162 162
r 1.813 0 1 cbr 1000 ------- 0 0.0 1.0 100 100
+ 1.815 0 1 cbr 1000 ------- 0 0.0 1.0 163 163
d 1.815 0 1 cbr 1000 ------- 0 0.0 1.0 163 163
- 1.816 0 1 cbr 1000 ------- 0 0.0 1.0 102 102
+ 1.82 0 1 cbr 1000 ------- 0 0.0 1.0 164 164
r 1.821 0 1 cbr 1000 ------- 0 0.0 1.0 101 101
- 1.824 0 1 cbr 1000 ------- 0 0.0 1.0 103 103
+ 1.825 0 1 cbr 1000 ------- 0 0.0 1.0 165 165
r 1.829 0 1 cbr 1000 ------- 0 0.0 1.0 102 102
+ 1.83 0 1 cbr 1000 ------- 0 0.0 1.0 166 166
d 1.83 0 1 cbr 1000 ------- 0 0.0 1.0 166 166
- 1.832 0 1 cbr 1000 ------- 0 0.0 1.0 104 104
+ 1.835 0 1 cbr 1000 ------- 0 0.0 1.0 167 167
r 1.837 0 1 cbr 1000 ------- 0 0.0 1.0 103 103
+ 1.84 0 1 cbr 1000 ------- 0 0.0 1.0 168 168
d 1.84 0 1 cbr 1000 ------- 0 0.0 1.0 168 168
- 1.84 0 1 cbr 1000 ------- 0 0.0 1.0 105 105
+ 1.845 0 1 cbr 1000 ------- 0 0.0 1.0 169 169
r 1.845 0 1 cbr 1000 ------- 0 0.0 1.0 104 104
- 1.848 0 1 cbr 1000 ------- 0 0.0 1.0 106 106
+ 1.85 0 1 cbr 1000 ------- 0 0.0 1.0 170 170
r 1.853 0 1 cbr 1000 ------- 0 0.0 1.0 105 105
+ 1.855 0 1 cbr 1000 ------- 0 0.0 1.0 171 171
d 1.855 0 1 cbr 1000 ------- 0 0.0 1.0 171 171
- 1.856 0 1 cbr 1000 ------- 0 0.0 1.0 107 107
+ 1.86 0 1 cbr 1000 ------- 0 0.0 1.0 172 172
r 1.861 0 1 cbr 1000 ------- 0 0.0 1.0 106 106
- 1.864 0 1 cbr 1000 ------- 0 0.0 1.0 108 108
+ 1.865 0 1 cbr 1000 ------- 0 0.0 1.0 173 173
r 1.869 0 1 cbr 1000 ------- 0 0.0 1.0 107 107
+ 1.87 0 1 cbr 1000 ------- 0 0.0 1.0 174 174
d 1.87 0 1 cbr 1000 ------- 0 0.0 1.0 174 174
- 1.872 0 1 cbr 1000 ------- 0 0.0 1.0 109 109
+ 1.875 0 1 cbr 1000 ------- 0 0.0 1.0 175 175
r 1.877 0 1 cbr 1000 ------- 0 0.0 1.0 108 108
+ 1.88 0 1 cbr 1000 ------- 0 0.0 1.0 176 176
d 1.88 0 1 cbr 1000 ------- 0 0.0 1.0 176 176
- 1.88 0 1 cbr 1000 ------- 0 0.0 1.0 110 110
+ 1.885 0 1 cbr 1000 ------- 0 0.0 1.0 177 177
r 1.885 0 1 cbr 1000 ------- 0 0.0 1.0 109 109
- 1.888 0 1 cbr 1000 ------- 0 0.0 1.0 111 111
+ 1.89 0 1 cbr 1000 ------- 0 0.0 1.0 178 178
r 1.893 0 1 cbr 1000 ------- 0 0.0 1.0 110 110
+ 1.895 0 1 cbr 1000 ------- 0 0.0 1.0 179 179
d 1.895 0 1 cbr 1000 ------- 0 0.0 1.0 179 179
- 1.896 0 1 cbr 1000 ------- 0 0.0 1.0 112 112
+ 1.9 0 1 cbr 1000 ------- 0 0.0 1.0 180 180
r 1.901 0 1 cbr 1000 ------- 0 0.0 1.0 111 111
- 1.904 0 1 cbr 1000 ------- 0 0.0 1.0 113 113
+ 1.905 0 1 cbr 1000 ------- 0 0.0 1.0 181 181
r 1.909 0 1 cbr 1000 ------- 0 0.0 1.0 112 112
+ 1.91 0 1 cbr 1000 ------- 0 0.0 1.0 182 182
d 1.91 0 1 cbr 1000 ------- 0 0.0 1.0 182 182
- 1.912 0 1 cbr 1000 ------- 0 0.0 1.0 114 114
+ 1.915 0 1 cbr 1000 ------- 0 0.0 1.0 183 183
r 1.917 0 1 cbr 1000 ------- 0 0.0 1.0 113 113
+ 1.92 0 1 cbr 1000 ------- 0 0.0 1.0 184 184
d 1.92 0 1 cbr 1000 ------- 0 0.0 1.0 184 184
- 1.92 0 1 cbr 1000 ------- 0 0.0 1.0 115 115
+ 1.925 0 1 cbr 1000 ------- 0 0.0 1.0 185 185
r 1.925 0 1 cbr 1000 ------- 0 0.0 1.0 114 114
- 1.928 0 1 cbr 1000 ------- 0 0.0 1.0 116 116
+ 1.93 0 1 cbr 1000 ------- 0 0.0 1.0 186 186
r 1.933 0 1 cbr 1000 ------- 0 0.0 1.0 115 115
+ 1.935 0 1 cbr 1000 ------- 0 0.0 1.0 187 187
d 1.935 0 1 cbr 1000 ------- 0 0.0 1.0 187 187
- 1.936 0 1 cbr 1000 ------- 0 0.0 1.0 117 117
+ 1.94 0 1 cbr 1000 ------- 0 0.0 1.0 188 188
r 1.941 0 1 cbr 1000 ------- 0 0.0 1.0 116 116
- 1.944 0 1 cbr 1000 ------- 0 0.0 1.0 118 118
+ 1.945 0 1 cbr 1000 ------- 0 0.0 1.0 189 189
r 1.949 0 1 cbr 1000 ------- 0 0.0 1.0 117 117
+ 1.95 0 1 cbr 1000 ------- 0 0.0 1.0 190 190
d 1.95 0 1 cbr 1000 ------- 0 0.0 1.0 190 190
- 1.952 0 1 cbr 1000 ------- 0 0.0 1.0 119 119
+ 1.955 0 1 cbr 1000 ------- 0 0.0 1.0 191 191
r 1.957 0 1 cbr 1000 ------- 0 0.0 1.0 118 118
+ 1.96 0 1 cbr 1000 ------- 0 0.0 1.0 192 192
d 1.96 0 1 cbr 1000 ------- 0 0.0 1.0 192 192
- 1.96 0 1 cbr 1000 ------- 0 0.0 1.0 120 120
+ 1.965 0 1 cbr 1000 ------- 0 0.0 1.0 193 193
r 1.965 0 1 cbr 1000 ------- 0 0.0 1.0 119 119
- 1.968 0 1 cbr 1000 ------- 0 0.0 1.0 121 121
+ 1.97 0 1 cbr 1000 ------- 0 0.0 1.0 194 194
r 1.973 0 1 cbr 1000 ------- 0 0.0 1.0 120 120
+ 1.975 0 1 cbr 1000 ------- 0 0.0 1.0 195 195
d 1.975 0 1 cbr 1000 ------- 0 0.0 1.0 195 195
- 1.976 0 1 cbr 1000 ------- 0 0.0 1.0 122 122
+ 1.98 0 1 cbr 1000 ------- 0 0.0 1.0 196 196
r 1.981 0 1 cbr 1000 ------- 0 0.0 1.0 121 121
- 1.984 0 1 cbr 1000 ------- 0 0.0 1.0 123 123
+ 1.985 0 1 cbr 1000 ------- 0 0.0 1.0 197 197
r 1.989 0 1 cbr 1000 ------- 0 0.0 1.0 122 122
+ 1.99 0 1 cbr 1000 ------- 0 0.0 1.0 198 198
d 1.99 0 1 cbr 1000 ------- 0 0.0 1.0 198 198
- 1.992 0 1 cbr 1000 ------- 0 0.0 1.0 124 124
+ 1.995 0 1 cbr 1000 ------- 0 0.0 1.0 199 199
r 1.997 0 1 cbr 1000 ------- 0 0.0 1.0 123 123
+ 2 0 1 cbr 1000 ------- 0 0.0 1.0 200 200
d 2 0 1 cbr 1000 ------- 0 0.0 1.0 200 200
- 2 0 1 cbr 1000 ------- 0 0.0 1.0 125 125
+ 2.005 0 1 cbr 1000 ------- 0 0.0 1.0 201 201
r 2.005 0 1 cbr 1000 ------- 0 0.0 1.0 124 124
- 2.008 0 1 cbr 1000 ------- 0 0.0 1.0 126 126
+ 2.01 0 1 cbr 1000 ------- 0 0.0 1.0 202 202
r 2.013 0 1 cbr 1000 ------- 0 0.0 1.0 125 125
+ 2.015 0 1 cbr 1000 ------- 0 0.0 1.0 203 203
d 2.015 0 1 cbr 1000 ------- 0 0.0 1.0 203 203
- 2.016 0 1 cbr 1000 ------- 0 0.0 1.0 127 127
+ 2.02 0 1 cbr 1000 ------- 0 0.0 1.0 204 204
r 2.021 0 1 cbr 1000 ------- 0 0.0 1.0 126 126
- 2.024 0 1 cbr 1000 ------- 0 0.0 1.0 128 128
+ 2.025 0 1 cbr 1000 ------- 0 0.0 1.0 205 205
r 2.029 0 1 cbr 1000 ------- 0 0.0 1.0 127 127
+ 2.03 0 1 cbr 1000 ------- 0 0.0 1.0 206 206
d 2.03 0 1 cbr 1000 ------- 0 0.0 1.0 206 206
- 2.032 0 1 cbr 1000 ------- 0 0.0 1.0 129 129
+ 2.035 0 1 cbr 1000 ------- 0 0.0 1.0 207 207
r 2.037 0 1 cbr 1000 ------- 0 0.0 1.0 128 128
+ 2.04 0 1 cbr 1000 ------- 0 0.0 1.0 208 208
d 2.04 0 1 cbr 1000 ------- 0 0.0 1.0 208 208
- 2.04 0 1 cbr 1000 ------- 0 0.0 1.0 130 130
+ 2.045 0 1 cbr 1000 ------- 0 0.0 1.0 209 209
r 2.045 0 1 cbr 1000 ------- 0 0.0 1.0 129 129
- 2.048 0 1 cbr 1000 ------- 0 0.0 1.0 132 132
+ 2.05 0 1 cbr 1000 ------- 0 0.0 1.0 210 210
r 2.053 0 1 cbr 1000 ------- 0 0.0 1.0 130 130
+ 2.055 0 1 cbr 1000 ------- 0 0.0 1.0 211 211
d 2.055 0 1 cbr 1000 ------- 0 0.0 1.0 211 211
- 2.056 0 1 cbr 1000 ------- 0 0.0 1.0 133 133
+ 2.06 0 1 cbr 1000 ------- 0 0.0 1.0 212 212
r 2.061 0 1 cbr 1000 ------- 0 0.0 1.0 132 132
- 2.064 0 1 cbr 1000 ------- 0 0.0 1.0 135 135
+ 2.065 0 1 cbr 1000 ------- 0 0.0 1.0 213 213
r 2.069 0 1 cbr 1000 ------- 0 0.0 1.0 133 133
+ 2.07 0 1 cbr 1000 ------- 0 0.0 1.0 214 214
d 2.07 0 1 cbr 1000 ------- 0 0.0 1.0 214 214
- 2.072 0 1 cbr 1000 ------- 0 0.0 1.0 137 137
+ 2.075 0 1 cbr 1000 ------- 0 0.0 1.0 215 215
r 2.077 0 1 cbr 1000 ------- 0 0.0 1.0 135 135
+ 2.08 0 1 cbr 1000 ------- 0 0.0 1.0 216 216
d 2.08 0 1 cbr 1000 ------- 0 0.0 1.0 216 216
- 2.08 0 1 cbr 1000 ------- 0 0.0 1.0 138 138
+ 2.085 0 1 cbr 1000 ------- 0 0.0 1.0 217 217
r 2.085 0 1 cbr 1000 ------- 0 0.0 1.0 137 137
- 2.088 0 1 cbr 1000 ------- 0 0.0 1.0 140 140
+ 2.09 0 1 cbr 1000 ------- 0 0.0 1.0 218 218
r 2.093 0 1 cbr 1000 ------- 0 0.0 1.0 138 138
+ 2.095 0 1 cbr 1000 ------- 0 0.0 1.0 219 219
d 2.095 0 1 cbr 1000 ------- 0 0.0 1.0 219 219
- 2.096 0 1 cbr 1000 ------- 0 0.0 1.0 141 141
+ 2.1 0 1 cbr 1000 ------- 0 0.0 1.0 220 220
r 2.101 0 1 cbr 1000 ------- 0 0.0 1.0 140 140
- 2.104 0 1 cbr 1000 ------- 0 0.0 1.0 143 143
+ 2.105 0 1 cbr 1000 ------- 0 0.0 1.0 221 221
r 2.109 0 1 cbr 1000 ------- 0 0.0 1.0 141 141
+ 2.11 0 1 cbr 1000 ------- 0 0.0 1.0 222 222
d 2.11 0 1 cbr 1000 ------- 0 0.0 1.0 222 222
- 2.112 0 1 cbr 1000 ------- 0 0.0 1.0 145 145
+ 2.115 0 1 cbr 1000 ------- 0 0.0 1.0 223 223
r 2.117 0 1 cbr 1000 ------- 0 0.0 1.0 143 143
+ 2.12 0 1 cbr 1000 ------- 0 0.0 1.0 224 224
d 2.12 0 1 cbr 1000 ------- 0 0.0 1.0 224 224
- 2.12 0 1 cbr 1000 ------- 0 0.0 1.0 146 146
+ 2.125 0 1 cbr 1000 ------- 0 0.0 1.0 225 225
r 2.125 0 1 cbr 1000 ------- 0 0.0 1.0 145 145
- 2.128 0 1 cbr 1000 ------- 0 0.0 1.0 148 148
+ 2.13 0 1 cbr 1000 ------- 0 0.0 1.0 226 226
r 2.133 0 1 cbr 1000 ------- 0 0.0 1.0 146 146
+ 2.135 0 1 cbr 1000 ------- 0 0.0 1.0 227 227
d 2.135 0 1 cbr 1000 ------- 0 0.0 1.0 227 227
- 2.136 0 1 cbr 1000 ------- 0 0.0 1.0 149 149
+ 2.14 0 1 cbr 1000 ------- 0 0.0 1.0 228 228
r 2.141 0 1 cbr 1000 ------- 0 0.0 1.0 148 148
- 2.144 0 1 cbr 1000 ------- 0 0.0 1.0 151 151
+ 2.145 0 1 cbr 1000 ------- 0 0.0 1.0 229 229
r 2.149 0 1 cbr 1000 ------- 0 0.0 1.0 149 149
+ 2.15 0 1 cbr 1000 ------- 0 0.0 1.0 230 230
d 2.15 0 1 cbr 1000 ------- 0 0.0 1.0 230 230
- 2.152 0 1 cbr 1000 ------- 0 0.0 1.0 153 153
+ 2.155 0 1 cbr 1000 ------- 0 0.0 1.0 231 231
r 2.157 0 1 cbr 1000 ------- 0 0.0 1.0 151 151
+ 2.16 0 1 cbr 1000 ------- 0 0.0 1.0 232 232
d 2.16 0 1 cbr 1000 ------- 0 0.0 1.0 232 232
- 2.16 0 1 cbr 1000 ------- 0 0.0 1.0 154 154
+ 2.165 0 1 cbr 1000 ------- 0 0.0 1.0 233 233
r 2.165 0 1 cbr 1000 ------- 0 0.0 1.0 153 153
- 2.168 0 1 cbr 1000 ------- 0 0.0 1.0 156 156
+ 2.17 0 1 cbr 1000 ------- 0 0.0 1.0 234 234
r 2.173 0 1 cbr 1000 ------- 0 0.0 1.0 154 154
+ 2.175 0 1 cbr 1000 ------- 0 0.0 1.0 235 235
d 2.175 0 1 cbr 1000 ------- 0 0.0 1.0 235 235
- 2.176 0 1 cbr 1000 ------- 0 0.0 1.0 157 157
+ 2.18 0 1 cbr 1000 ------- 0 0.0 1.0 236 236
r 2.181 0 1 cbr 1000 ------- 0 0.0 1.0 156 156
- 2.184 0 1 cbr 1000 ------- 0 0.0 1.0 159 159
+ 2.185 0 1 cbr 1000 ------- 0 0.0 1.0 237 237
r 2.189 0 1 cbr 1000 ------- 0 0.0 1.0 157 157
+ 2.19 0 1 cbr 1000 ------- 0 0.0 1.0 238 238
d 2.19 0 1 cbr 1000 ------- 0 0.0 1.0 238 238
- 2.192 0 1 cbr 1000 ------- 0 0.0 1.0 161 161
+ 2.195 0 1 cbr 1000 ------- 0 0.0 1.0 239 239
r 2.197 0 1 cbr 1000 ------- 0 0.0 1.0 159 159
+ 2.2 0 1 cbr 1000 ------- 0 0.0 1.0 240 240
d 2.2 0 1 cbr 1000 ------- 0 0.0 1.0 240 240
- 2.2 0 1 cbr 1000 ------- 0 0.0 1.0 162 162
+ 2.205 0 1 cbr 1000 ------- 0 0.0 1.0 241 241
r 2.205 0 1 cbr 1000 ------- 0 0.0 1.0 161 161
- 2.208 0 1 cbr 1000 ------- 0 0.0 1.0 164 164
+ 2.21 0 1 cbr 1000 ------- 0 0.0 1.0 242 242
r 2.213 0 1 cbr 1000 ------- 0 0.0 1.0 162 162
+ 2.215 0 1 cbr 1000 ------- 0 0.0 1.0 243 243
d 2.215 0 1 cbr 1000 ------- 0 0.0 1.0 243 243
- 2.216 0 1 cbr 1000 ------- 0 0.0 1.0 165 165
+ 2.22 0 1 cbr 1000 ------- 0 0.0 1.0 244 244
r 2.221 0 1 cbr 1000 ------- 0 0.0 1.0 164 164
- 2.224 0 1 cbr 1000 ------- 0 0.0 1.0 167 167
+ 2.225 0 1 cbr 1000 ------- 0 0.0 1.0 245 245
r 2.229 0 1 cbr 1000 ------- 0 0.0 1.0 165 165
+ 2.23 0 1 cbr 1000 ------- 0 0.0 1.0 246 246
d 2.23 0 1 cbr 1000 ------- 0 0.0 1.0 246 246
- 2.232 0 1 cbr 1000 ------- 0 0.0 1.0 169 169
+ 2.235 0 1 cbr 1000 ------- 0 0.0 1.0 247 247
r 2.237 0 1 cbr 1000 ------- 0 0.0 1.0 167 167
+ 2.24 0 1 cbr 1000 ------- 0 0.0 1.0 248 248
d 2.24 0 1 cbr 1000 ------- 0 0.0 1.0 248 248
- 2.24 0 1 cbr 1000 ------- 0 0.0 1.0 170 170
+ 2.245 0 1 cbr 1000 ------- 0 0.0 1.0 249 249
r 2.245 0 1 cbr 1000 ------- 0 0.0 1.0 169 169
- 2.248 0 1 cbr 1000 ------- 0 0.0 1.0 172 172
+ 2.25 0 1 cbr 1000 ------- 0 0.0 1.0 250 250
r 2.253 0 1 cbr 1000 ------- 0 0.0 1.0 170 170
+ 2.255 0 1 cbr 1000 ------- 0 0.0 1.0 251 251
d 2.255 0 1 cbr 1000 ------- 0 0.0 1.0 251 251
- 2.256 0 1 cbr 1000 ------- 0 0.0 1.0 173 173
+ 2.26 0 1 cbr 1000 ------- 0 0.0 1.0 252 252
r 2.261 0 1 cbr 1000 ------- 0 0.0 1.0 172 172
- 2.264 0 1 cbr 1000 ------- 0 0.0 1.0 175 175
+ 2.265 0 1 cbr 1000 ------- 0 0.0 1.0 253 253
r 2.269 0 1 cbr 1000 ------- 0 0.0 1.0 173 173
+ 2.27 0 1 cbr 1000 ------- 0 0.0 1.0 254 254
d 2.27 0 1 cbr 1000 ------- 0 0.0 1.0 254 254
- 2.272 0 1 cbr 1000 ------- 0 0.0 1.0 177 177
+ 2.275 0 1 cbr 1000 ------- 0 0.0 1.0 255 255
r 2.277 0 1 cbr 1000 ------- 0 0.0 1.0 175 175
+ 2.28 0 1 cbr 1000 ------- 0 0.0 1.0 256 256
d 2.28 0 1 cbr 1000 ------- 0 0.0 1.0 256 256
- 2.28 0 1 cbr 1000 ------- 0 0.0 1.0 178 178
+ 2.285 0 1 cbr 1000 ------- 0 0.0 1.0 257 257
r 2.285 0 1 cbr 1000 ------- 0 0.0 1.0 177 177
- 2.288 0 1 cbr 1000 ------- 0 0.0 1.0 180 180
+ 2.29 0 1 cbr 1000 ------- 0 0.0 1.0 258 258
r 2.293 0 1 cbr 1000 ------- 0 0.0 1.0 178 178
+ 2.295 0 1 cbr 1000 ------- 0 0.0 1.0 259 259
d 2.295 0 1 cbr 1000 ------- 0 0.0 1.0 259 259
- 2.296 0 1 cbr 1000 ------- 0 0.0 1.0 181 181
+ 2.3 0 1 cbr 1000 ------- 0 0.0 1.0 260 260
r 2.301 0 1 cbr 1000 ------- 0 0.0 1.0 180 180
- 2.304 0 1 cbr 1000 ------- 0 0.0 1.0 183 183
+ 2.305 0 1 cbr 1000 ------- 0 0.0 1.0 261 261
r 2.309 0 1 cbr 1000 ------- 0 0.0 1.0 181 181
+ 2.31 0 1 cbr 1000 ------- 0 0.0 1.0 262 262
d 2.31 0 1 cbr 1000 ------- 0 0.0 1.0 262 262
- 2.312 0 1 cbr 1000 ------- 0 0.0 1.0 185 185
+ 2.315 0 1 cbr 1000 ------- 0 0.0 1.0 263 263
r 2.317 0 1 cbr 1000 ------- 0 0.0 1.0 183 183
+ 2.32 0 1 cbr 1000 ------- 0 0.0 1.0 264 264
d 2.32 0 1 cbr 1000 ------- 0 0.0 1.0 264 264
- 2.32 0 1 cbr 1000 ------- 0 0.0 1.0 186 186
+ 2.325 0 1 cbr 1000 ------- 0 0.0 1.0 265 265
r 2.325 0 1 cbr 1000 ------- 0 0.0 1.0 185 185
- 2.328 0 1 cbr 1000 ------- 0 0.0 1.0 188 188
+ 2.33 0 1 cbr 1000 ------- 0 0.0 1.0 266 266
r 2.333 0 1 cbr 1000 ------- 0 0.0 1.0 186 186
+ 2.335 0 1 cbr 1000 ------- 0 0.0 1.0 267 267
d 2.335 0 1 cbr 1000 ------- 0 0.0 1.0 267 267
- 2.336 0 1 cbr 1000 ------- 0 0.0 1.0 189 189
+ 2.34 0 1 cbr 1000 ------- 0 0.0 1.0 268 268
r 2.341 0 1 cbr 1000 ------- 0 0.0 1.0 188 188
- 2.344 0 1 cbr 1000 ------- 0 0.0 1.0 191 191